(written by ASE)

2 atoms
1 atom types

0.0                    3.21  xlo xhi
0.0      2.7799415461480477  ylo yhi
0.0      5.2130400000000003  zlo zhi
                 -1.605                       0                       0  xy xz yz

Atoms # atomic

     1   1                       0                       0                       0
     2   1 -8.8632804799241652e-17      1.8532943640986981      2.6065200000000002
