LAMMPS (2 Aug 2023 - Update 2)
  using 1 OpenMP thread(s) per MPI task
Reading data file ...
  triclinic box = (0 0 0) to (17.426645 17.426642 17.426649) with tilt (1.0670741e-15 1.0670745e-15 1.9347467e-15)
  1 by 1 by 1 MPI processor grid
  reading atom labelmap ...
  reading atoms ...
  312 atoms
  read_data CPU = 0.020 seconds
WARNING: No fixes with time integration, atoms won't move (src/verlet.cpp:60)
Neighbor list info ...
  update: every = 1 steps, delay = 0 steps, check = yes
  max neighbors/atom: 2000, page size: 100000
  master list distance cutoff = 8
  ghost atom cutoff = 8
  binsize = 4, bins = 5 5 5
  2 neighbor lists, perpetual/occasional/extra = 2 0 0
  (1) pair meam/c, perpetual
      attributes: full, newton on
      pair build: full/bin/atomonly
      stencil: full/bin/3d
      bin: standard
  (2) pair meam/c, perpetual, half/full from (1)
      attributes: half, newton on
      pair build: halffull/newton
      stencil: none
      bin: none
Setting up Verlet run ...
  Unit style    : metal
  Current step  : 0
  Time step     : 0.001
Per MPI rank memory allocation (min/avg/max) = 9.497 | 9.497 | 9.497 Mbytes
   Step          Temp          E_pair         E_mol          TotEng         Press     
         0   0             -366.06828      0             -366.06828      0.27596817   
Loop time of 4.7e-07 on 1 procs for 0 steps with 312 atoms

0.0% CPU use with 1 MPI tasks x 1 OpenMP threads

MPI task timing breakdown:
Section |  min time  |  avg time  |  max time  |%varavg| %total
---------------------------------------------------------------
Pair    | 0          | 0          | 0          |   0.0 |  0.00
Neigh   | 0          | 0          | 0          |   0.0 |  0.00
Comm    | 0          | 0          | 0          |   0.0 |  0.00
Output  | 0          | 0          | 0          |   0.0 |  0.00
Modify  | 0          | 0          | 0          |   0.0 |  0.00
Other   |            | 4.7e-07    |            |       |100.00

Nlocal:            312 ave         312 max         312 min
Histogram: 1 0 0 0 0 0 0 0 0 0
Nghost:           1824 ave        1824 max        1824 min
Histogram: 1 0 0 0 0 0 0 0 0 0
Neighs:          20184 ave       20184 max       20184 min
Histogram: 1 0 0 0 0 0 0 0 0 0
FullNghs:        40368 ave       40368 max       40368 min
Histogram: 1 0 0 0 0 0 0 0 0 0

Total # of neighbors = 40368
Ave neighs/atom = 129.38462
Neighbor list builds = 0
Dangerous builds = 0
Total wall time: 0:00:00
