LAMMPS data file via write_data, version 2 Aug 2023, timestep = 1, units = metal

12 atoms
2 atom types

-0.05600499138420371 5.279004991384214 xlo xhi
-0.0485015284305074 4.571752212396631 ylo yhi
-0.05537834880834672 8.621378348808344 zlo zhi
-2.6675047409909225 0 0 xy xz yz

Masses

1 24.32
2 65.39

Atoms # atomic

1 1 -0.05600498088792607 3.031667126542657 3.7376886578402466 0 0 0
4 1 -0.05600498088792607 3.031667126542657 0.4899329933514103 0 0 0
6 2 -0.05600499138420429 -0.04850152843050639 -0.055378348808342914 0 0 0
7 2 3.926769968652466 0.7322096473802423 2.113810825595828 0 0 0
8 2 2.611499720602678 3.0103252204559183 2.1138108255958286 0 0 0
9 2 1.2962293210835607 0.7322097010649785 2.1138108255958286 0 0 0
5 2 -0.056004991384204277 -0.04850152843050642 4.283000000000001 0 0 0
10 2 -1.37127470964338 3.791041036585883 6.452189174404174 0 0 0
11 2 -0.05600446159359157 1.5129254635102067 6.452189174404174 0 0 0
12 2 1.259265937925525 3.791040982901149 6.452189174404174 0 0 0
2 1 2.611500239897012 1.491583557423469 4.828311342159756 0 0 0
3 1 2.6115002398970115 1.491583557423469 8.076067006648593 0 0 0

Velocities

1 0 0 0
4 0 0 0
6 0 0 0
7 0 0 0
8 0 0 0
9 0 0 0
5 0 0 0
10 0 0 0
11 0 0 0
12 0 0 0
2 0 0 0
3 0 0 0
