LAMMPS data file via write_data, version 2 Aug 2023, timestep = 1, units = metal

2 atoms
1 atom types

0.0004675047916590413 3.2095324952083413 xlo xhi
0.00040487102596733663 2.7795366751220802 ylo yhi
0.0080647301369193 5.204975269863083 zlo zhi
-1.6045324952083415 0 0 xy xz yz

Masses

1 24.32

Atoms # atomic

1 1 0.00046750479165904305 0.00040487102596733663 0.0080647301369193 0 0 0
2 1 0.0004675047916592341 1.853159407090042 2.6065200000000015 0 0 0

Velocities

1 0 0 0
2 0 0 0
