104
Lattice="14.835477463950001 0.0 0.0 0.0 17.553218983828 0.0 0.0 0.0 30.799144947814" Properties=species:S:1:pos:R:3:forces:R:3:energies:R:1 energy=-122.66356584619875 stress="-3.668251776903184e-06 -5.443046325526881e-07 -1.946314629560001e-06 -5.443046325526881e-07 0.0002442088129497143 8.373238369612764e-07 -1.946314629560001e-06 8.373238369612764e-07 4.979069482419275e-06" free_energy=-122.66356584619875 pbc="T T F"
Zn       6.17014986      10.97679112      19.11977160      -0.00961609      -0.00603291      -0.00021336      -1.09583628
Zn       6.17379528       2.20540218      19.11618927      -0.01549232      -0.02537762      -0.00396287      -1.09525964
Zn      11.06364395      10.97714975      19.18257793       0.00459296      -0.00310048       0.02670142      -0.81984085
Zn      11.06668775       2.18783607      19.17764345      -0.00777719       0.00709753       0.00160709      -0.81868578
Zn       8.66168218      15.34781681      11.68295568       0.01549232       0.02537761       0.00396275      -1.09525964
Zn       8.66532760       6.57642787      11.67937334       0.00961608       0.00603290       0.00021351      -1.09583627
Zn       3.76878971      15.36538292      11.62150149       0.00777723      -0.00709753      -0.00160697      -0.81868578
Zn       3.77183351       6.57606924      11.61656702      -0.00459298       0.00310048      -0.02670146      -0.81984085
Mg       8.60340948       9.22847370      19.04662657      -0.00327171      -0.00749891      -0.00533899      -1.26769984
Mg       8.61202288       0.45011446      19.03488510      -0.00436848       0.00789069       0.01887869      -1.27121339
Mg       3.67815416       9.24908565      18.86447765       0.00195257      -0.00014042      -0.01494239      -1.10611442
Mg       3.67643794       0.46779767      18.86328238       0.00524966       0.01185805      -0.00822428      -1.10820073
Mg       6.23712743      13.62028328      11.75355425      -0.01796332      -0.01987075       0.00604568      -1.26873094
Mg       6.23196510       4.83239277      11.74829320      -0.01597940      -0.00466359       0.00368362      -1.26792842
Mg      11.15138983      13.63663452      11.93167500       0.00627266      -0.00454880       0.00951803      -1.10742117
Mg      11.15948611       4.84943384      11.93134216       0.00753989       0.00935507       0.01319679      -1.10689484
Mg      11.15732331       8.30413334      11.93466730      -0.00195257       0.00014043       0.01494239      -1.10611442
Mg       6.23206798       8.32474529      11.75251837       0.00327171       0.00749892       0.00533899      -1.26769984
Mg      11.15903952      17.08542132      11.93586256      -0.00524966      -0.01185805       0.00822428      -1.10820073
Mg       6.22345458      17.10310453      11.76425985       0.00436848      -0.00789069      -0.01887868      -1.27121339
Mg       3.67599135      12.70378515      18.86780279      -0.00753989      -0.00935507      -0.01319679      -1.10689484
Mg       3.68408763       3.91658446      18.86746995      -0.00627266       0.00454879      -0.00951803      -1.10742117
Mg       8.60351236      12.72082622      19.05085175       0.01597940       0.00466359      -0.00368362      -1.26792842
Mg       8.59835003       3.93293571      19.04559069       0.01796332       0.01987074      -0.00604568      -1.26873094
Zn       7.46677101       6.58059822      18.42679047       0.01379980       0.00354133      -0.01127304      -0.95490812
Zn       7.46446553      15.36631038      18.44052614       0.04267150      -0.00297899      -0.01096265      -0.95632680
Zn       2.72444525       6.57663097      17.92061292       0.01175503       0.00697998      -0.00605246      -0.34220605
Zn       2.72506590      15.37032725      17.92553876       0.00334521      -0.01335205       0.00239187      -0.34150549
Zn       7.36870646      10.97262077      12.37235448      -0.01379990      -0.00354133       0.01127303      -0.95490812
Zn       7.37101194       2.18690861      12.35861880      -0.04267157       0.00297898       0.01096264      -0.95632680
Zn      12.11103221      10.97658802      12.87853202      -0.01175504      -0.00697998       0.00605246      -0.34220605
Zn      12.11041156       2.18289174      12.87360618      -0.00334522       0.01335205      -0.00239187      -0.34150549
Zn       9.84458531      10.96769238      11.89076408       0.00251628      -0.00032240      -0.00320367      -0.67918051
Zn       4.91911038      10.97294602      12.33985567      -0.00590675       0.00425823       0.00464030      -0.78760053
Zn       9.84582377       2.19678267      11.88466203       0.00614278      -0.01206511      -0.00874598      -0.68063380
Zn       4.91849275       2.19290268      12.33498860       0.00288997       0.00555530       0.00405600      -0.78951475
Zn       4.98965369      15.35643632      18.91448292      -0.00614274       0.01206511       0.00874597      -0.68063380
Zn       4.99089215       6.58552660      18.90838086      -0.00251622       0.00032240       0.00320366      -0.67918051
Zn       9.91698470      15.36031631      18.46415635      -0.00288993      -0.00555530      -0.00405601      -0.78951475
Zn       9.91636707       6.58027297      18.45928928       0.00590682      -0.00425823      -0.00464032      -0.78760053
Zn       6.16094485       8.72596779      17.61297554       0.00161562      -0.01105114       0.00095171      -1.12657796
Zn       6.16753444      17.50619413      17.62817203      -0.01765502      -0.00110589      -0.00636109      -1.12805604
Zn      11.03435718       8.70652046      17.68542581       0.00919426      -0.01116867       0.00779683      -0.65600924
Zn      11.04460456      17.47556692      17.68972478       0.01798256       0.00839765      -0.00636732      -0.65595560
Zn       8.67646595      13.11076214      13.18976195      -0.00496876      -0.01799971       0.00501621      -1.12816376
Zn       8.67361001       4.32891193      13.16745120      -0.00094724       0.00099131       0.01049134      -1.12964166
Zn       3.79769281      13.09753410      13.11648449       0.00230961       0.00194521      -0.01234214      -0.65771255
Zn       3.78869085       4.31065075      13.10695063       0.00682855       0.02244012      -0.00823115      -0.65766379
Zn       8.67453261       8.82725120      13.18616941      -0.00161561       0.01105111      -0.00095172      -1.12657796
Zn       3.80112028       8.84669853      13.11371913      -0.00919426       0.01116864      -0.00779683      -0.65600924
Zn       8.66794302       0.04702486      13.17097291       0.01765502       0.00110587       0.00636110      -1.12805604
Zn       3.79087290       0.07765207      13.10942017      -0.01798255      -0.00839767       0.00636732      -0.65595560
Zn       6.16186745      13.22430706      17.63169375       0.00094724      -0.00099128      -0.01049134      -1.12964166
Zn       6.15901151       4.44245684      17.60938300       0.00496877       0.01799975      -0.00501621      -1.12816376
Zn      11.04678661      13.24256824      17.69219432      -0.00682855      -0.02244010       0.00823116      -0.65766379
Zn      11.03778465       4.45568489      17.68266045      -0.00230961      -0.00194517       0.01234214      -0.65771255
Zn      10.28943257      10.97541539      16.82516419      -0.00715656       0.00369608       0.01647368      -1.17067823
Zn      10.28718051       2.18655214      16.82331445      -0.02826433       0.00545382      -0.01298377      -1.17557073
Zn       5.04129502      10.97972292      16.79933734      -0.01196870      -0.00973450       0.00010272      -1.22654864
Zn       5.03462505       2.19532315      16.79679752      -0.00867050      -0.01154047      -0.00883033      -1.22744383
Zn       4.54829696      15.36666685      13.97583050       0.02826430      -0.00545382       0.01298371      -1.17557074
Zn       4.54604490       6.57780360      13.97398076       0.00715653      -0.00369607      -0.01647371      -1.17067823
Zn       9.80085241      15.35789584      14.00234743       0.00867048       0.01154046       0.00883033      -1.22744383
Zn       9.79418244       6.57349607      13.99980761       0.01196865       0.00973450      -0.00010275      -1.22654864
Zn      12.39490407       6.57635936      13.78945814       0.00867657       0.00306410       0.00990399      -0.29659666
Zn       7.19687142       6.57593189      13.88033817       0.00014895       0.00641038      -0.01717138      -1.19557148
Zn      12.40069413      15.35537040      13.78795893       0.00928469       0.00421371       0.01212030      -0.29542736
Zn       7.20307895      15.35379256      13.88718515      -0.02027912       0.00920715       0.00872463      -1.19944908
Zn       2.44057339      10.97685963      17.00968681      -0.00867655      -0.00306410      -0.00990400      -0.29659666
Zn       2.43478333       2.19784859      17.01118602      -0.00928469      -0.00421371      -0.01212031      -0.29542737
Zn       7.63860603      10.97728710      16.91880677      -0.00014890      -0.00641038       0.01717134      -1.19557148
Zn       7.63239851       2.19942642      16.91195980       0.02027914      -0.00920715      -0.00872464      -1.19944908
Mg       8.62085150       4.97972938      16.06440436      -0.00528536      -0.00278524       0.00958795      -1.58954797
Mg       8.62156563      13.77517103      16.08153338      -0.00181272      -0.01408035      -0.00100914      -1.58832695
Mg       3.45089338       4.77240248      15.91600616      -0.00625856       0.01746062       0.00908536      -1.43355683
Mg       3.44230451      13.56464085      15.92148398       0.00219131       0.00505502       0.00253303      -1.43146184
Mg       6.21559536       9.38270043      14.72692752       0.00771860      -0.00802803       0.00032833      -1.58982566
Mg       6.20586256       0.59312143      14.72865077       0.01762166      -0.00429566       0.00898191      -1.58853699
Mg      11.38637319       9.16437723      14.88283949       0.00349089       0.01093654      -0.01572354      -1.43088945
Mg      11.39718084       0.39068262      14.88055435      -0.00170587      -0.00670770       0.00818476      -1.43069404
Mg      11.38458408      12.78081651      14.88313878       0.00625856      -0.01746063      -0.00908536      -1.43355683
Mg       6.21462596      12.57348961      14.73474058       0.00528536       0.00278524      -0.00958795      -1.58954797
Mg      11.39317295       3.98857814      14.87766097      -0.00219132      -0.00505503      -0.00253303      -1.43146184
Mg       6.21391183       3.77804795      14.71761157       0.00181272       0.01408035       0.00100914      -1.58832695
Mg       3.43829662      17.16253637      15.91859060       0.00170587       0.00670770      -0.00818476      -1.43069404
Mg       3.44910427       8.38884176      15.91630546      -0.00349089      -0.01093653       0.01572354      -1.43088945
Mg       8.62961490      16.96009756      16.07049418      -0.01762166       0.00429566      -0.00898192      -1.58853699
Mg       8.61988210       8.17051856      16.07221743      -0.00771860       0.00802803      -0.00032833      -1.58982566
Zn       5.92933836       6.57909671      16.12003709      -0.00066670       0.01454870      -0.00506752      -1.21981277
Zn       5.93114957      15.36446566      16.13536669      -0.00854323       0.00056514      -0.04083842      -1.22059771
Zn      11.34074920       6.57644683      16.19654377       0.00032853       0.00986161      -0.00068332      -0.97324199
Zn      11.35549950      15.35649454      16.20155518      -0.00615849       0.01598839      -0.00915911      -0.97149977
Zn       8.90613910      10.97412228      14.67910786       0.00066670      -0.01454870       0.00506758      -1.21981277
Zn       8.90432789       2.18875332      14.66377826       0.00854324      -0.00056514       0.04083847      -1.22059771
Zn       3.49472826      10.97677216      14.60260117      -0.00032854      -0.00986162       0.00068335      -0.97324199
Zn       3.47997796       2.19672445      14.59758976       0.00615849      -0.01598839       0.00915913      -0.97149977
H        6.12219062      10.94292941      20.68271010      -0.00770065       0.00194134       0.00370883      -2.77097331
H        6.11893649       2.25722647      20.67777145      -0.00944455      -0.00572235       0.01125184      -2.77173167
H       11.66778124      10.96025064      20.61475412       0.01065607       0.00275674      -0.04835412      -2.76369432
H       11.66811915       2.20407359      20.60741878       0.02670888      -0.00223844      -0.01441178      -2.76462269
H        8.71654097      15.29599252      10.12137349       0.00944454       0.00572236      -0.01125173      -2.77173166
H        8.71328684       6.61028957      10.11643485       0.00770065      -0.00194134      -0.00370893      -2.77097331
H        3.16735831      15.34914540      10.19172617      -0.02670892       0.00223844       0.01441170      -2.76462269
H        3.16769622       6.59296835      10.18439082      -0.01065605      -0.00275674       0.04835416      -2.76369431
