96
Lattice="11.40449733306 0.0 0.0 0.0 17.090504834598 0.0 0.0 0.0 27.85402055309" Properties=species:S:1:pos:R:3:forces:R:3:energies:R:1 energy=-109.52221873473529 stress="0.0006963177077749873 -2.7544210674854653e-08 -1.0388109355041198e-05 -2.7544210674854653e-08 0.00035314761794686154 4.008999242510237e-07 -1.0388109355041198e-05 4.008999242510237e-07 -1.6422778580907417e-06" free_energy=-109.52221873473529 pbc="T T F"
Zn       1.47929997       6.41088348      17.66002557       0.00748298       0.00025553       0.01702539      -0.48862777
Mg       4.21855380       4.79311512      17.40384694       0.00539849      -0.01562038       0.00118932      -1.27658554
Mg       4.21763648       8.02854494      17.40252140       0.00652595       0.01492428       0.00463836      -1.27670009
Zn       2.97375193       2.13740403      16.74368459      -0.00315400       0.00247391       0.00229440      -0.87598157
Zn       5.49152847       2.13864430      16.75457310       0.03451064      -0.00074188      -0.01255465      -0.87341313
Zn       1.38090531       4.22772293      16.32797454      -0.00465567      -0.00338093      -0.01827496      -1.07628449
Zn       1.38101445       8.59400749      16.32739528      -0.00648569       0.00002959      -0.01695624      -1.07653981
Zn       5.66408058       6.41117732      15.40469046       0.01416560      -0.00110107       0.02849239      -1.19347298
Zn       2.86812499       6.41033589      15.34942696       0.00248054      -0.00037820       0.00434273      -1.17637358
Mg       4.27965345       0.52697378      14.49994942       0.00486602       0.00410821      -0.00502816      -1.58278391
Mg       4.28013060       3.74866659      14.49966408       0.00377826      -0.00477461      -0.00328289      -1.58282618
Zn       1.39995678       2.13706984      14.63171508      -0.02403484       0.00250744       0.00884158      -1.21070440
Zn       4.30277615       6.41013436      13.22195902       0.02279956      -0.00075664      -0.00366023      -1.21063493
Mg       1.42262279       4.79908998      13.35444075      -0.00434264       0.00491797       0.00318445      -1.58278348
Mg       1.42203117       8.02078570      13.35378654      -0.00405687      -0.00556995       0.00488195      -1.58276668
Zn       0.03858274       2.13737716      12.44988533      -0.01694266      -0.00000958      -0.03183141      -1.19325315
Zn       2.83394383       2.13636442      12.50501858      -0.00083301       0.00264632      -0.00570119      -1.17622712
Zn       4.32134303       4.32042571      11.52596323       0.00541416      -0.00124570       0.01781345      -1.07628806
Zn       4.32160597       8.49853480      11.52580607       0.00610534       0.00080789       0.01876570      -1.07635216
Zn       2.72905528       6.40951757      11.10991487      -0.00098721      -0.00010909      -0.00233260      -0.87601089
Zn       0.21029157       6.40952487      11.09935736      -0.02945382       0.00012547       0.01132895      -0.87362413
Mg       1.48488652       0.51973191      10.45144800      -0.00700405      -0.01637607      -0.00459862      -1.27666028
Mg       1.48371025       3.75497594      10.45027575      -0.00529872       0.01514628      -0.00100158      -1.27653160
Zn       4.22149790       2.13632287      10.19492371      -0.00627837       0.00212122      -0.01757615      -0.48912872
Zn       1.47929997      14.95613590      17.66002557       0.00748298       0.00025553       0.01702539      -0.48862777
Mg       4.21855380      13.33836753      17.40384694       0.00539849      -0.01562038       0.00118932      -1.27658554
Mg       4.21763648      16.57379736      17.40252140       0.00652595       0.01492428       0.00463836      -1.27670009
Zn       2.97375193      10.68265645      16.74368459      -0.00315400       0.00247391       0.00229440      -0.87598157
Zn       5.49152847      10.68389671      16.75457310       0.03451064      -0.00074188      -0.01255465      -0.87341313
Zn       1.38090531      12.77297535      16.32797454      -0.00465567      -0.00338093      -0.01827496      -1.07628449
Zn       1.38101445       0.04875507      16.32739528      -0.00648569       0.00002959      -0.01695624      -1.07653981
Zn       5.66408058      14.95642973      15.40469046       0.01416560      -0.00110107       0.02849239      -1.19347298
Zn       2.86812499      14.95558831      15.34942696       0.00248054      -0.00037820       0.00434273      -1.17637358
Mg       4.27965345       9.07222619      14.49994942       0.00486602       0.00410821      -0.00502816      -1.58278391
Mg       4.28013060      12.29391901      14.49966408       0.00377826      -0.00477461      -0.00328289      -1.58282618
Zn       1.39995678      10.68232226      14.63171508      -0.02403484       0.00250744       0.00884158      -1.21070440
Zn       4.30277615      14.95538678      13.22195902       0.02279956      -0.00075664      -0.00366023      -1.21063493
Mg       1.42262279      13.34434239      13.35444075      -0.00434264       0.00491797       0.00318445      -1.58278348
Mg       1.42203117      16.56603812      13.35378654      -0.00405687      -0.00556995       0.00488195      -1.58276668
Zn       0.03858274      10.68262958      12.44988533      -0.01694266      -0.00000958      -0.03183141      -1.19325315
Zn       2.83394383      10.68161683      12.50501858      -0.00083301       0.00264632      -0.00570119      -1.17622712
Zn       4.32134303      12.86567813      11.52596323       0.00541416      -0.00124570       0.01781345      -1.07628806
Zn       4.32160597      -0.04671762      11.52580607       0.00610534       0.00080789       0.01876570      -1.07635216
Zn       2.72905528      14.95476999      11.10991487      -0.00098721      -0.00010909      -0.00233260      -0.87601089
Zn       0.21029157      14.95477729      11.09935736      -0.02945382       0.00012547       0.01132895      -0.87362413
Mg       1.48488652       9.06498433      10.45144800      -0.00700405      -0.01637607      -0.00459862      -1.27666028
Mg       1.48371025      12.30022835      10.45027575      -0.00529872       0.01514628      -0.00100158      -1.27653160
Zn       4.22149790      10.68157529      10.19492371      -0.00627837       0.00212122      -0.01757615      -0.48912872
Zn       7.18154863       6.41088348      17.66002557       0.00748298       0.00025553       0.01702539      -0.48862777
Mg       9.92080246       4.79311512      17.40384694       0.00539849      -0.01562038       0.00118932      -1.27658554
Mg       9.91988515       8.02854494      17.40252140       0.00652595       0.01492428       0.00463836      -1.27670009
Zn       8.67600059       2.13740403      16.74368459      -0.00315400       0.00247391       0.00229440      -0.87598157
Zn      11.19377714       2.13864430      16.75457310       0.03451064      -0.00074188      -0.01255465      -0.87341313
Zn       7.08315397       4.22772293      16.32797454      -0.00465567      -0.00338093      -0.01827496      -1.07628449
Zn       7.08326312       8.59400749      16.32739528      -0.00648569       0.00002959      -0.01695624      -1.07653981
Zn      11.36632925       6.41117732      15.40469046       0.01416560      -0.00110107       0.02849239      -1.19347298
Zn       8.57037366       6.41033589      15.34942696       0.00248054      -0.00037820       0.00434273      -1.17637358
Mg       9.98190212       0.52697378      14.49994942       0.00486602       0.00410821      -0.00502816      -1.58278391
Mg       9.98237927       3.74866659      14.49966408       0.00377826      -0.00477461      -0.00328289      -1.58282618
Zn       7.10220545       2.13706984      14.63171508      -0.02403484       0.00250744       0.00884158      -1.21070440
Zn      10.00502482       6.41013436      13.22195902       0.02279956      -0.00075664      -0.00366023      -1.21063493
Mg       7.12487145       4.79908998      13.35444075      -0.00434264       0.00491797       0.00318445      -1.58278348
Mg       7.12427983       8.02078570      13.35378654      -0.00405687      -0.00556995       0.00488195      -1.58276668
Zn       5.74083141       2.13737716      12.44988533      -0.01694266      -0.00000958      -0.03183141      -1.19325315
Zn       8.53619250       2.13636442      12.50501858      -0.00083301       0.00264632      -0.00570119      -1.17622712
Zn      10.02359170       4.32042571      11.52596323       0.00541416      -0.00124570       0.01781345      -1.07628806
Zn      10.02385464       8.49853480      11.52580607       0.00610534       0.00080789       0.01876570      -1.07635216
Zn       8.43130394       6.40951757      11.10991487      -0.00098721      -0.00010909      -0.00233260      -0.87601089
Zn       5.91254024       6.40952487      11.09935736      -0.02945382       0.00012547       0.01132895      -0.87362413
Mg       7.18713519       0.51973191      10.45144800      -0.00700405      -0.01637607      -0.00459862      -1.27666028
Mg       7.18595892       3.75497594      10.45027575      -0.00529872       0.01514628      -0.00100158      -1.27653160
Zn       9.92374656       2.13632287      10.19492371      -0.00627837       0.00212122      -0.01757615      -0.48912872
Zn       7.18154863      14.95613590      17.66002557       0.00748298       0.00025553       0.01702539      -0.48862777
Mg       9.92080246      13.33836753      17.40384694       0.00539849      -0.01562038       0.00118932      -1.27658554
Mg       9.91988515      16.57379736      17.40252140       0.00652595       0.01492428       0.00463836      -1.27670009
Zn       8.67600059      10.68265645      16.74368459      -0.00315400       0.00247391       0.00229440      -0.87598157
Zn      11.19377714      10.68389671      16.75457310       0.03451064      -0.00074188      -0.01255465      -0.87341313
Zn       7.08315397      12.77297535      16.32797454      -0.00465567      -0.00338093      -0.01827496      -1.07628449
Zn       7.08326312       0.04875507      16.32739528      -0.00648569       0.00002959      -0.01695624      -1.07653981
Zn      11.36632925      14.95642973      15.40469046       0.01416560      -0.00110107       0.02849239      -1.19347298
Zn       8.57037366      14.95558831      15.34942696       0.00248054      -0.00037820       0.00434273      -1.17637358
Mg       9.98190212       9.07222619      14.49994942       0.00486602       0.00410821      -0.00502816      -1.58278391
Mg       9.98237927      12.29391901      14.49966408       0.00377826      -0.00477461      -0.00328289      -1.58282618
Zn       7.10220545      10.68232226      14.63171508      -0.02403484       0.00250744       0.00884158      -1.21070440
Zn      10.00502482      14.95538678      13.22195902       0.02279956      -0.00075664      -0.00366023      -1.21063493
Mg       7.12487145      13.34434239      13.35444075      -0.00434264       0.00491797       0.00318445      -1.58278348
Mg       7.12427983      16.56603812      13.35378654      -0.00405687      -0.00556995       0.00488195      -1.58276668
Zn       5.74083141      10.68262958      12.44988533      -0.01694266      -0.00000958      -0.03183141      -1.19325315
Zn       8.53619250      10.68161683      12.50501858      -0.00083301       0.00264632      -0.00570119      -1.17622712
Zn      10.02359170      12.86567813      11.52596323       0.00541416      -0.00124570       0.01781345      -1.07628806
Zn      10.02385464      -0.04671762      11.52580607       0.00610534       0.00080789       0.01876570      -1.07635216
Zn       8.43130394      14.95476999      11.10991487      -0.00098721      -0.00010909      -0.00233260      -0.87601089
Zn       5.91254024      14.95477729      11.09935736      -0.02945382       0.00012547       0.01132895      -0.87362413
Mg       7.18713519       9.06498433      10.45144800      -0.00700405      -0.01637607      -0.00459862      -1.27666028
Mg       7.18595892      12.30022835      10.45027575      -0.00529872       0.01514628      -0.00100158      -1.27653160
Zn       9.92374656      10.68157529      10.19492371      -0.00627837       0.00212122      -0.01757615      -0.48912872
