312  
13   

1    
  0.0057735026918963   0.0057735026918963   0.0057735026918963
  -0.0313156299   -0.0210470799   -0.0248362499
  -0.0000022999    0.0000002001    0.0000000001
   0.0000000001   -0.0000000099    0.0000000001
   0.0000000001   -0.0000000099    0.0000000001
   0.0000000001   -0.0000000099    0.0000000001
   0.0000000001   -0.0000000099    0.0000000001
   0.0000000001   -0.0000000099    0.0000000001
   0.0000000001   -0.0000000099    0.0000000001
  -0.0000634699   -0.0001276299   -0.0000319799
   0.0000000001    0.0000000001   -0.0000000099
  -0.0000000399   -0.0000039699    0.0000011201
   0.0000000001    0.0000000001   -0.0000000099
   0.0000000001    0.0000000001   -0.0000000099
   0.0000000001    0.0000000001   -0.0000000099
   0.0000000001    0.0000000001   -0.0000000099
   0.0000000001    0.0000000001   -0.0000000099
  -0.0000210699   -0.0001436499   -0.0000641799
   0.0000002701   -0.0000030799   -0.0000000299
  -0.0000000099    0.0000000001    0.0000000001
  -0.0000000099    0.0000000001    0.0000000001
  -0.0000000099    0.0000000001    0.0000000001
  -0.0000000099    0.0000000001    0.0000000001
  -0.0000000099    0.0000000001    0.0000000001
  -0.0000000099    0.0000000001    0.0000000001
   0.0110527401   -0.0003801299    0.0102055501
  -0.0000013499   -0.0000013299    0.0000020901
   0.0000000101    0.0000000101    0.0000000101
   0.0000000101    0.0000000101    0.0000000101
   0.0000000101    0.0000000101    0.0000000101
   0.0000000101    0.0000000101    0.0000000101
   0.0000000101    0.0000000101    0.0000000101
   0.0000000101    0.0000000101    0.0000000101
   0.0005473201    0.0000755601    0.0001073401
   0.0004551101   -0.0000394599    0.0000871601
   0.0000000001    0.0000000501    0.0000000001
   0.0000000001    0.0000000501    0.0000000001
   0.0000000001    0.0000000501    0.0000000001
   0.0000000001    0.0000000501    0.0000000001
   0.0000000001    0.0000000501    0.0000000001
   0.0000000001    0.0000000501    0.0000000001
   0.0002838301    0.0000781001    0.0002670201
   0.0000000001    0.0000000001    0.0000000501
   0.0000001901   -0.0000126699   -0.0000000399
   0.0000000001    0.0000000001    0.0000000501
  -0.0000015299   -0.0000297899    0.0000115201
   0.0000000001    0.0000000001    0.0000000501
   0.0000000001    0.0000000001    0.0000000501
   0.0000000001    0.0000000001    0.0000000501
   0.0057343201    0.0094691801   -0.0002513099
  -0.0000010699    0.0000008701   -0.0000000099
   0.0000000101    0.0000000001    0.0000000001
   0.0000000101    0.0000000001    0.0000000001
   0.0000000101    0.0000000001    0.0000000001
   0.0000000101    0.0000000001    0.0000000001
   0.0000000101    0.0000000001    0.0000000001
   0.0000000101    0.0000000001    0.0000000001
   0.0001094501   -0.0001576599   -0.0000503299
   0.0000009501    0.0000025101    0.0000038901
   0.0000000201    0.0000000001    0.0000000001
   0.0000000201    0.0000000001    0.0000000001
   0.0000000201    0.0000000001    0.0000000001
   0.0000000201    0.0000000001    0.0000000001
   0.0000000201    0.0000000001    0.0000000001
   0.0000000201    0.0000000001    0.0000000001
   0.0000004401    0.0000058001   -0.0000000399
   0.0051388601    0.0052511401   -0.0000474099
   0.0000000101    0.0000000001    0.0000000001
   0.0000000101    0.0000000001    0.0000000001
   0.0000000101    0.0000000001    0.0000000001
   0.0000000101    0.0000000001    0.0000000001
   0.0000000101    0.0000000001    0.0000000001
   0.0000000101    0.0000000001    0.0000000001
  -0.0000025299    0.0000024601   -0.0000040399
  -0.0002328999   -0.0005908899   -0.0009024299
  -0.0000000099    0.0000000101    0.0000000101
  -0.0000000099    0.0000000101    0.0000000101
  -0.0000000099    0.0000000101    0.0000000101
  -0.0000000099    0.0000000101    0.0000000101
  -0.0000000099    0.0000000101    0.0000000101
  -0.0000000099    0.0000000101    0.0000000101
   0.0000024401    0.0001326401   -0.0000735799
   0.0000428901    0.0001121801    0.0000931801
   0.0000000001    0.0000000001    0.0000000201
   0.0000000001    0.0000000001    0.0000000201
   0.0000000001    0.0000000001    0.0000000201
   0.0000000001    0.0000000001    0.0000000201
   0.0000000001    0.0000000001    0.0000000201
   0.0000000001    0.0000000001    0.0000000201
  -0.0000021099   -0.0000017699   -0.0000000199
  -0.0017068999    0.0022005601   -0.0002235099
  -0.0000000099    0.0000000001    0.0000000001
  -0.0000000099    0.0000000001    0.0000000001
  -0.0000000099    0.0000000001    0.0000000001
  -0.0000000099    0.0000000001    0.0000000001
  -0.0000000099    0.0000000001    0.0000000001
  -0.0000000099    0.0000000001    0.0000000001
   0.0000020101   -0.0000047499   -0.0000075299
  -0.0001563599   -0.0000156299    0.0001000301
  -0.0000000199    0.0000000001    0.0000000001
  -0.0000000199    0.0000000001    0.0000000001
  -0.0000000199    0.0000000001    0.0000000001
  -0.0000000199    0.0000000001    0.0000000001
  -0.0000000199    0.0000000001    0.0000000001
  -0.0000000199    0.0000000001    0.0000000001
   0.0000389401   -0.0001861499   -0.0000693899
  -0.0000322299   -0.0001317399   -0.0000890699
   0.0000000001    0.0000000001    0.0000000101
   0.0000000001    0.0000000001    0.0000000101
   0.0000000001    0.0000000001    0.0000000101
   0.0000000001    0.0000000001    0.0000000101
   0.0000000001    0.0000000001    0.0000000101
   0.0000000001    0.0000000001    0.0000000101
  -0.0001045799    0.0002652001   -0.0000880599
   0.0000000001    0.0000000101    0.0000000001
  -0.0000034899    0.0005110901   -0.0000075299
   0.0000000001    0.0000000101    0.0000000001
   0.0000000001    0.0000000101    0.0000000001
   0.0000000001    0.0000000101    0.0000000001
   0.0000000001    0.0000000101    0.0000000001
   0.0000000001    0.0000000101    0.0000000001
  -0.0000729299   -0.0001312199   -0.0000417399
   0.0000000101   -0.0000000099    0.0000000101
   0.0000173001    0.0000409101    0.0000336001
   0.0000000101   -0.0000000099    0.0000000101
   0.0000000101   -0.0000000099    0.0000000101
   0.0000000101   -0.0000000099    0.0000000101
   0.0000000101   -0.0000000099    0.0000000101
   0.0000000101   -0.0000000099    0.0000000101
   0.0000912401   -0.0000418399    0.0000778701
  -0.0000662699    0.0000473201    0.0000775801
   0.0000931201    0.0000691501    0.0000828301
   0.0000119001    0.0000258401    0.0000822601
   0.0000000001   -0.0000000499    0.0000000001
   0.0000000001   -0.0000000499    0.0000000001
   0.0000000001   -0.0000000499    0.0000000001
   0.0000000001   -0.0000000499    0.0000000001
  -0.0000000099   -0.0000000099    0.0000000101
   0.0000601001   -0.0001225999   -0.0001001799
  -0.0000000099   -0.0000000099    0.0000000101
  -0.0000948399    0.0000617001   -0.0001275499
  -0.0000000099   -0.0000000099    0.0000000101
  -0.0000000099   -0.0000000099    0.0000000101
  -0.0000000099   -0.0000000099    0.0000000101
  -0.0000000099   -0.0000000099    0.0000000101
   0.0000000001    0.0000000001    0.0000000201
   0.0000000001    0.0000000001    0.0000000201
   0.0000000001    0.0000000001    0.0000000201
   0.0000000001    0.0000000001    0.0000000201
   0.0000000001    0.0000000001    0.0000000201
   0.0000000001    0.0000000001    0.0000000201
   0.0000000001    0.0000000001    0.0000000201
   0.0000000001    0.0000000001    0.0000000201
  -0.0002038699   -0.0001523899   -0.0000432199
   0.0000000501    0.0000000001    0.0000000001
   0.0000000501    0.0000000001    0.0000000001
   0.0000000501    0.0000000001    0.0000000001
  -0.0000730199   -0.0001719799    0.0000133401
   0.0000000501    0.0000000001    0.0000000001
   0.0000000501    0.0000000001    0.0000000001
   0.0000000501    0.0000000001    0.0000000001
   0.0000132001   -0.0001976799    0.0004886701
   0.0000000001    0.0000000101    0.0000000001
   0.0000000001    0.0000000101    0.0000000001
   0.0000000001    0.0000000101    0.0000000001
   0.0000131901    0.0001329301    0.0003079801
   0.0000000001    0.0000000101    0.0000000001
   0.0000000001    0.0000000101    0.0000000001
   0.0000000001    0.0000000101    0.0000000001
   0.0000000101    0.0000000101   -0.0000000099
   0.0000000101    0.0000000101   -0.0000000099
   0.0000000101    0.0000000101   -0.0000000099
   0.0000000101    0.0000000101   -0.0000000099
  -0.0005690799   -0.0001744199   -0.0001907499
  -0.0000013099   -0.0000013599   -0.0000021799
   0.0000000101    0.0000000101   -0.0000000099
   0.0000000101    0.0000000101   -0.0000000099
   0.0000407001    0.0000176701   -0.0000327099
   0.0000000001    0.0000000201    0.0000000001
   0.0000000001    0.0000000201    0.0000000001
   0.0000000001    0.0000000201    0.0000000001
  -0.0000109699    0.0001409201   -0.0000093699
   0.0000000001    0.0000000201    0.0000000001
   0.0000000001    0.0000000201    0.0000000001
   0.0000000001    0.0000000201    0.0000000001
   0.0000000001    0.0000000001   -0.0000000099
   0.0000000001    0.0000000001   -0.0000000099
   0.0000000001    0.0000000001   -0.0000000099
   0.0000000001    0.0000000001   -0.0000000099
   0.0000870801   -0.0000249899    0.0000369801
  -0.0000814299    0.0000277801    0.0000562101
   0.0000000001    0.0000000001   -0.0000000099
   0.0000000001    0.0000000001   -0.0000000099
   0.0000000001    0.0000000001   -0.0000000199
   0.0000000001    0.0000000001   -0.0000000199
   0.0000000001    0.0000000001   -0.0000000199
   0.0000000001    0.0000000001   -0.0000000199
  -0.0000312199    0.0000880301    0.0001259701
   0.0000753801    0.0000678401   -0.0000390499
   0.0000000001    0.0000000001   -0.0000000199
   0.0000000001    0.0000000001   -0.0000000199
  -0.0000015999   -0.0000018999   -0.0001321299
   0.0000000001    0.0000000001   -0.0000000499
   0.0000000001    0.0000000001   -0.0000000499
   0.0000000001    0.0000000001   -0.0000000499
   0.0002826601    0.0001081401    0.0000185901
   0.0000000001    0.0000000001   -0.0000000499
   0.0000001901   -0.0000058799   -0.0000002299
   0.0000000001    0.0000000001   -0.0000000499
   0.0000000201    0.0000000001    0.0000000001
   0.0000000201    0.0000000001    0.0000000001
   0.0000000201    0.0000000001    0.0000000001
   0.0000000201    0.0000000001    0.0000000001
  -0.0000153599   -0.0001381999    0.0000263901
   0.0000010701    0.0000024501   -0.0000039299
   0.0000000201    0.0000000001    0.0000000001
   0.0000000201    0.0000000001    0.0000000001
  -0.0000000499    0.0000000001    0.0000000001
   0.0000655601    0.0000661001    0.0000580701
  -0.0000000499    0.0000000001    0.0000000001
  -0.0000000499    0.0000000001    0.0000000001
  -0.0000000499    0.0000000001    0.0000000001
  -0.0000629699    0.0000457201   -0.0000855399
  -0.0000000499    0.0000000001    0.0000000001
  -0.0000000499    0.0000000001    0.0000000001
  -0.0000000099    0.0000000101   -0.0000000099
  -0.0000000099    0.0000000101   -0.0000000099
  -0.0000000099    0.0000000101   -0.0000000099
  -0.0000000099    0.0000000101   -0.0000000099
  -0.0000025899    0.0000024201    0.0000039101
   0.0108273501   -0.0004099299    0.0103970101
  -0.0000000099    0.0000000101   -0.0000000099
  -0.0000000099    0.0000000101   -0.0000000099
   0.0000000001    0.0000000201    0.0000000001
  -0.0001100599   -0.0000648799   -0.0000286099
   0.0000000001    0.0000000201    0.0000000001
   0.0000000001    0.0000000201    0.0000000001
   0.0000000001    0.0000000201    0.0000000001
  -0.0000568599    0.0000577901   -0.0000128099
   0.0000000001    0.0000000201    0.0000000001
   0.0000000001    0.0000000201    0.0000000001
  -0.0000000199    0.0000000001    0.0000000001
  -0.0000000199    0.0000000001    0.0000000001
  -0.0000000199    0.0000000001    0.0000000001
  -0.0000000199    0.0000000001    0.0000000001
   0.0000018501   -0.0000048199    0.0000074801
  -0.0000273899    0.0000021001   -0.0001191799
  -0.0000000199    0.0000000001    0.0000000001
  -0.0000000199    0.0000000001    0.0000000001
   0.0000000001    0.0000000001    0.0000000101
   0.0000000001    0.0000000001    0.0000000101
   0.0000000001    0.0000000001    0.0000000101
   0.0000000001    0.0000000001    0.0000000101
  -0.0000475599    0.0052657801    0.0051241101
   0.0000000001    0.0000000001    0.0000000101
  -0.0000000399    0.0000046901    0.0000012801
   0.0000000001    0.0000000001    0.0000000101
   0.0000036601   -0.0000461199   -0.0000407399
   0.0000000001   -0.0000000099    0.0000000001
   0.0001221001    0.0001433001    0.0000233101
   0.0000000001   -0.0000000099    0.0000000001
   0.0000035501   -0.0000090099    0.0000036601
   0.0000000001   -0.0000000099    0.0000000001
   0.0001215801   -0.0000457899    0.0000244701
   0.0000000001   -0.0000000099    0.0000000001
   0.0000000101   -0.0000000099   -0.0000000099
   0.0000000101   -0.0000000099   -0.0000000099
   0.0000000101   -0.0000000099   -0.0000000099
   0.0000000101   -0.0000000099   -0.0000000099
  -0.0000719299    0.0000143301   -0.0000393299
   0.0000000101   -0.0000000099   -0.0000000099
  -0.0001408299    0.0000457101   -0.0001055499
   0.0000000101   -0.0000000099   -0.0000000099
  -0.0000550399   -0.0000114999   -0.0000408899
   0.0000000001   -0.0000000199    0.0000000001
   0.0000000001   -0.0000000199    0.0000000001
   0.0000000001   -0.0000000199    0.0000000001
  -0.0000137399    0.0000090401   -0.0000191399
   0.0000000001   -0.0000000199    0.0000000001
   0.0000000001   -0.0000000199    0.0000000001
   0.0000000001   -0.0000000199    0.0000000001
   0.0000000001    0.0000000001    0.0000000001
   0.0000000001    0.0000000001    0.0000000001
   0.0000000001    0.0000000001    0.0000000001
   0.0000000001    0.0000000001    0.0000000001
   0.0000000001    0.0000000001    0.0000000001
   0.0000000001    0.0000000001    0.0000000001
   0.0000000001    0.0000000001    0.0000000001
   0.0000000001    0.0000000001    0.0000000001
   0.0000000001    0.0000000001   -0.0000000199
   0.0000000001    0.0000000001   -0.0000000199
   0.0000000001    0.0000000001   -0.0000000199
   0.0000000001    0.0000000001   -0.0000000199
   0.0000000001    0.0000000001   -0.0000000199
   0.0000000001    0.0000000001   -0.0000000199
   0.0000000001    0.0000000001   -0.0000000199
   0.0000000001    0.0000000001   -0.0000000199
  -0.0000000099   -0.0000000099   -0.0000000099
  -0.0000000099   -0.0000000099   -0.0000000099
  -0.0000000099   -0.0000000099   -0.0000000099
  -0.0000000099   -0.0000000099   -0.0000000099
  -0.0000000099   -0.0000000099   -0.0000000099
   0.0000568201    0.0000260301    0.0000160601
  -0.0000000099   -0.0000000099   -0.0000000099
   0.0000629101    0.0000649801    0.0000552801
   0.0000000001   -0.0000000199    0.0000000001
   0.0000186101   -0.0000366799   -0.0000668599
   0.0000000001   -0.0000000199    0.0000000001
   0.0000000001   -0.0000000199    0.0000000001
   0.0000000001   -0.0000000199    0.0000000001
  -0.0000224499   -0.0000157399    0.0000066001
   0.0000000001   -0.0000000199    0.0000000001
   0.0000000001   -0.0000000199    0.0000000001

1    
 -0.0057735026918963  -0.0057735026918963  -0.0057735026918963
   0.0313742598    0.0211194799    0.0251915600
   0.0000021698   -0.0000001801    0.0000000000
  -0.0000000002   -0.0000000101    0.0000000000
  -0.0000000002   -0.0000000101    0.0000000000
  -0.0000000002   -0.0000000101    0.0000000000
  -0.0000000002   -0.0000000101    0.0000000000
  -0.0000000002   -0.0000000101    0.0000000000
  -0.0000000002   -0.0000000101    0.0000000000
   0.0000578298    0.0001544099    0.0000083700
  -0.0000000002   -0.0000000001   -0.0000000100
   0.0000000398    0.0000039499   -0.0000011400
  -0.0000000002   -0.0000000001   -0.0000000100
  -0.0000000002   -0.0000000001   -0.0000000100
  -0.0000000002   -0.0000000001   -0.0000000100
  -0.0000000002   -0.0000000001   -0.0000000100
  -0.0000000002   -0.0000000001   -0.0000000100
  -0.0000100702    0.0001678899    0.0000571400
  -0.0000003002    0.0000031499    0.0000000400
  -0.0000000102   -0.0000000001    0.0000000000
  -0.0000000102   -0.0000000001    0.0000000000
  -0.0000000102   -0.0000000001    0.0000000000
  -0.0000000102   -0.0000000001    0.0000000000
  -0.0000000102   -0.0000000001    0.0000000000
  -0.0000000102   -0.0000000001    0.0000000000
  -0.0105455702    0.0002958299   -0.0097249200
   0.0000014198    0.0000013799   -0.0000021200
   0.0000000098    0.0000000099    0.0000000100
   0.0000000098    0.0000000099    0.0000000100
   0.0000000098    0.0000000099    0.0000000100
   0.0000000098    0.0000000099    0.0000000100
   0.0000000098    0.0000000099    0.0000000100
   0.0000000098    0.0000000099    0.0000000100
  -0.0005465302   -0.0000744801   -0.0000843200
  -0.0004562502    0.0000387199   -0.0001046100
  -0.0000000002    0.0000000499    0.0000000000
  -0.0000000002    0.0000000499    0.0000000000
  -0.0000000002    0.0000000499    0.0000000000
  -0.0000000002    0.0000000499    0.0000000000
  -0.0000000002    0.0000000499    0.0000000000
  -0.0000000002    0.0000000499    0.0000000000
  -0.0002806102   -0.0000668201   -0.0002468100
  -0.0000000002   -0.0000000001    0.0000000500
  -0.0000001902    0.0000126599    0.0000001500
  -0.0000000002   -0.0000000001    0.0000000500
   0.0000016698    0.0000299999   -0.0000121800
  -0.0000000002   -0.0000000001    0.0000000500
  -0.0000000002   -0.0000000001    0.0000000500
  -0.0000000002   -0.0000000001    0.0000000500
  -0.0054939102   -0.0090073201    0.0001878500
   0.0000011298   -0.0000008801    0.0000000100
   0.0000000098   -0.0000000001    0.0000000000
   0.0000000098   -0.0000000001    0.0000000000
   0.0000000098   -0.0000000001    0.0000000000
   0.0000000098   -0.0000000001    0.0000000000
   0.0000000098   -0.0000000001    0.0000000000
   0.0000000098   -0.0000000001    0.0000000000
  -0.0001126802    0.0001550899    0.0000458500
  -0.0000009102   -0.0000025701   -0.0000039800
   0.0000000198   -0.0000000001    0.0000000000
   0.0000000198   -0.0000000001    0.0000000000
   0.0000000198   -0.0000000001    0.0000000000
   0.0000000198   -0.0000000001    0.0000000000
   0.0000000198   -0.0000000001    0.0000000000
   0.0000000198   -0.0000000001    0.0000000000
  -0.0000004102   -0.0000052401    0.0000000300
  -0.0054006302   -0.0055298401    0.0000754300
   0.0000000098   -0.0000000001    0.0000000000
   0.0000000098   -0.0000000001    0.0000000000
   0.0000000098   -0.0000000001    0.0000000000
   0.0000000098   -0.0000000001    0.0000000000
   0.0000000098   -0.0000000001    0.0000000000
   0.0000000098   -0.0000000001    0.0000000000
   0.0000022498   -0.0000022201    0.0000036400
   0.0002814298    0.0006015799    0.0008867400
  -0.0000000102    0.0000000099    0.0000000100
  -0.0000000102    0.0000000099    0.0000000100
  -0.0000000102    0.0000000099    0.0000000100
  -0.0000000102    0.0000000099    0.0000000100
  -0.0000000102    0.0000000099    0.0000000100
  -0.0000000102    0.0000000099    0.0000000100
  -0.0000030202   -0.0001325101    0.0000725600
  -0.0000405302   -0.0001128801   -0.0000926800
  -0.0000000002   -0.0000000001    0.0000000200
  -0.0000000002   -0.0000000001    0.0000000200
  -0.0000000002   -0.0000000001    0.0000000200
  -0.0000000002   -0.0000000001    0.0000000200
  -0.0000000002   -0.0000000001    0.0000000200
  -0.0000000002   -0.0000000001    0.0000000200
   0.0000018498    0.0000015899    0.0000000100
   0.0016959298   -0.0022158701    0.0002139800
  -0.0000000102   -0.0000000001    0.0000000000
  -0.0000000102   -0.0000000001    0.0000000000
  -0.0000000102   -0.0000000001    0.0000000000
  -0.0000000102   -0.0000000001    0.0000000000
  -0.0000000102   -0.0000000001    0.0000000000
  -0.0000000102   -0.0000000001    0.0000000000
  -0.0000018402    0.0000042799    0.0000067900
   0.0001544598    0.0000171999   -0.0000985100
  -0.0000000202   -0.0000000001    0.0000000000
  -0.0000000202   -0.0000000001    0.0000000000
  -0.0000000202   -0.0000000001    0.0000000000
  -0.0000000202   -0.0000000001    0.0000000000
  -0.0000000202   -0.0000000001    0.0000000000
  -0.0000000202   -0.0000000001    0.0000000000
  -0.0000340302    0.0001812199    0.0000705300
   0.0000296598    0.0001307799    0.0000885400
  -0.0000000002   -0.0000000001    0.0000000100
  -0.0000000002   -0.0000000001    0.0000000100
  -0.0000000002   -0.0000000001    0.0000000100
  -0.0000000002   -0.0000000001    0.0000000100
  -0.0000000002   -0.0000000001    0.0000000100
  -0.0000000002   -0.0000000001    0.0000000100
   0.0001042898   -0.0002596001    0.0000843300
  -0.0000000002    0.0000000099    0.0000000000
   0.0000035398   -0.0005093801    0.0000076400
  -0.0000000002    0.0000000099    0.0000000000
  -0.0000000002    0.0000000099    0.0000000000
  -0.0000000002    0.0000000099    0.0000000000
  -0.0000000002    0.0000000099    0.0000000000
  -0.0000000002    0.0000000099    0.0000000000
   0.0000734498    0.0001329799    0.0000436100
   0.0000000098   -0.0000000101    0.0000000100
  -0.0000169002   -0.0000416301   -0.0000332000
   0.0000000098   -0.0000000101    0.0000000100
   0.0000000098   -0.0000000101    0.0000000100
   0.0000000098   -0.0000000101    0.0000000100
   0.0000000098   -0.0000000101    0.0000000100
   0.0000000098   -0.0000000101    0.0000000100
  -0.0000881602    0.0000424899   -0.0000765600
   0.0000673098   -0.0000462901   -0.0000768500
  -0.0000937402   -0.0000682901   -0.0000828000
  -0.0000115702   -0.0000255201   -0.0000833800
  -0.0000000002   -0.0000000501    0.0000000000
  -0.0000000002   -0.0000000501    0.0000000000
  -0.0000000002   -0.0000000501    0.0000000000
  -0.0000000002   -0.0000000501    0.0000000000
  -0.0000000102   -0.0000000101    0.0000000100
  -0.0000609102    0.0001224299    0.0000995000
  -0.0000000102   -0.0000000101    0.0000000100
   0.0000946598   -0.0000621801    0.0001281100
  -0.0000000102   -0.0000000101    0.0000000100
  -0.0000000102   -0.0000000101    0.0000000100
  -0.0000000102   -0.0000000101    0.0000000100
  -0.0000000102   -0.0000000101    0.0000000100
  -0.0000000002   -0.0000000001    0.0000000200
  -0.0000000002   -0.0000000001    0.0000000200
  -0.0000000002   -0.0000000001    0.0000000200
  -0.0000000002   -0.0000000001    0.0000000200
  -0.0000000002   -0.0000000001    0.0000000200
  -0.0000000002   -0.0000000001    0.0000000200
  -0.0000000002   -0.0000000001    0.0000000200
  -0.0000000002   -0.0000000001    0.0000000200
   0.0002014898    0.0001531099    0.0000367700
   0.0000000498   -0.0000000001    0.0000000000
   0.0000000498   -0.0000000001    0.0000000000
   0.0000000498   -0.0000000001    0.0000000000
   0.0000750298    0.0001734599   -0.0000123700
   0.0000000498   -0.0000000001    0.0000000000
   0.0000000498   -0.0000000001    0.0000000000
   0.0000000498   -0.0000000001    0.0000000000
  -0.0000142402    0.0001958499   -0.0004838900
  -0.0000000002    0.0000000099    0.0000000000
  -0.0000000002    0.0000000099    0.0000000000
  -0.0000000002    0.0000000099    0.0000000000
  -0.0000142702   -0.0001332001   -0.0003104100
  -0.0000000002    0.0000000099    0.0000000000
  -0.0000000002    0.0000000099    0.0000000000
  -0.0000000002    0.0000000099    0.0000000000
   0.0000000098    0.0000000099   -0.0000000100
   0.0000000098    0.0000000099   -0.0000000100
   0.0000000098    0.0000000099   -0.0000000100
   0.0000000098    0.0000000099   -0.0000000100
   0.0005459598    0.0001798999    0.0002150200
   0.0000013598    0.0000014099    0.0000022400
   0.0000000098    0.0000000099   -0.0000000100
   0.0000000098    0.0000000099   -0.0000000100
  -0.0000405902   -0.0000184701    0.0000318500
  -0.0000000002    0.0000000199    0.0000000000
  -0.0000000002    0.0000000199    0.0000000000
  -0.0000000002    0.0000000199    0.0000000000
   0.0000115998   -0.0001415001    0.0000103400
  -0.0000000002    0.0000000199    0.0000000000
  -0.0000000002    0.0000000199    0.0000000000
  -0.0000000002    0.0000000199    0.0000000000
  -0.0000000002   -0.0000000001   -0.0000000100
  -0.0000000002   -0.0000000001   -0.0000000100
  -0.0000000002   -0.0000000001   -0.0000000100
  -0.0000000002   -0.0000000001   -0.0000000100
  -0.0000854402    0.0000228199   -0.0000378100
   0.0000800398   -0.0000292401   -0.0000562500
  -0.0000000002   -0.0000000001   -0.0000000100
  -0.0000000002   -0.0000000001   -0.0000000100
  -0.0000000002   -0.0000000001   -0.0000000200
  -0.0000000002   -0.0000000001   -0.0000000200
  -0.0000000002   -0.0000000001   -0.0000000200
  -0.0000000002   -0.0000000001   -0.0000000200
   0.0000305398   -0.0000893901   -0.0001277800
  -0.0000752802   -0.0000694901    0.0000391900
  -0.0000000002   -0.0000000001   -0.0000000200
  -0.0000000002   -0.0000000001   -0.0000000200
   0.0000015998    0.0000019899    0.0001311000
  -0.0000000002   -0.0000000001   -0.0000000500
  -0.0000000002   -0.0000000001   -0.0000000500
  -0.0000000002   -0.0000000001   -0.0000000500
  -0.0002818802   -0.0001041201   -0.0000167500
  -0.0000000002   -0.0000000001   -0.0000000500
  -0.0000001902    0.0000059499    0.0000001200
  -0.0000000002   -0.0000000001   -0.0000000500
   0.0000000198   -0.0000000001    0.0000000000
   0.0000000198   -0.0000000001    0.0000000000
   0.0000000198   -0.0000000001    0.0000000000
   0.0000000198   -0.0000000001    0.0000000000
   0.0000170598    0.0001361699   -0.0000302900
  -0.0000010502   -0.0000025101    0.0000040300
   0.0000000198   -0.0000000001    0.0000000000
   0.0000000198   -0.0000000001    0.0000000000
  -0.0000000502   -0.0000000001    0.0000000000
  -0.0000663602   -0.0000652601   -0.0000577900
  -0.0000000502   -0.0000000001    0.0000000000
  -0.0000000502   -0.0000000001    0.0000000000
  -0.0000000502   -0.0000000001    0.0000000000
   0.0000623798   -0.0000457201    0.0000845000
  -0.0000000502   -0.0000000001    0.0000000000
  -0.0000000502   -0.0000000001    0.0000000000
  -0.0000000102    0.0000000099   -0.0000000100
  -0.0000000102    0.0000000099   -0.0000000100
  -0.0000000102    0.0000000099   -0.0000000100
  -0.0000000102    0.0000000099   -0.0000000100
   0.0000022898   -0.0000021901   -0.0000035600
  -0.0113741202    0.0004658999   -0.0109188300
  -0.0000000102    0.0000000099   -0.0000000100
  -0.0000000102    0.0000000099   -0.0000000100
  -0.0000000002    0.0000000199    0.0000000000
   0.0001084198    0.0000647599    0.0000296100
  -0.0000000002    0.0000000199    0.0000000000
  -0.0000000002    0.0000000199    0.0000000000
  -0.0000000002    0.0000000199    0.0000000000
   0.0000577698   -0.0000588601    0.0000132400
  -0.0000000002    0.0000000199    0.0000000000
  -0.0000000002    0.0000000199    0.0000000000
  -0.0000000202   -0.0000000001    0.0000000000
  -0.0000000202   -0.0000000001    0.0000000000
  -0.0000000202   -0.0000000001    0.0000000000
  -0.0000000202   -0.0000000001    0.0000000000
  -0.0000017302    0.0000043299   -0.0000067500
   0.0000287498   -0.0000034501    0.0001187200
  -0.0000000202   -0.0000000001    0.0000000000
  -0.0000000202   -0.0000000001    0.0000000000
  -0.0000000002   -0.0000000001    0.0000000100
  -0.0000000002   -0.0000000001    0.0000000100
  -0.0000000002   -0.0000000001    0.0000000100
  -0.0000000002   -0.0000000001    0.0000000100
   0.0000752698   -0.0055446101   -0.0053859100
  -0.0000000002   -0.0000000001    0.0000000100
   0.0000000398   -0.0000046601   -0.0000012500
  -0.0000000002   -0.0000000001    0.0000000100
  -0.0000035202    0.0000456299    0.0000404500
  -0.0000000002   -0.0000000101    0.0000000000
  -0.0001225802   -0.0001442801   -0.0000246500
  -0.0000000002   -0.0000000101    0.0000000000
  -0.0000036202    0.0000089999   -0.0000038900
  -0.0000000002   -0.0000000101    0.0000000000
  -0.0001231102    0.0000457699   -0.0000239200
  -0.0000000002   -0.0000000101    0.0000000000
   0.0000000098   -0.0000000101   -0.0000000100
   0.0000000098   -0.0000000101   -0.0000000100
   0.0000000098   -0.0000000101   -0.0000000100
   0.0000000098   -0.0000000101   -0.0000000100
   0.0000675998   -0.0000179201    0.0000436000
   0.0000000098   -0.0000000101   -0.0000000100
   0.0001415198   -0.0000460101    0.0001053300
   0.0000000098   -0.0000000101   -0.0000000100
   0.0000544998    0.0000116699    0.0000409400
  -0.0000000002   -0.0000000201    0.0000000000
  -0.0000000002   -0.0000000201    0.0000000000
  -0.0000000002   -0.0000000201    0.0000000000
   0.0000137798   -0.0000090601    0.0000187700
  -0.0000000002   -0.0000000201    0.0000000000
  -0.0000000002   -0.0000000201    0.0000000000
  -0.0000000002   -0.0000000201    0.0000000000
  -0.0000000002   -0.0000000001    0.0000000000
  -0.0000000002   -0.0000000001    0.0000000000
  -0.0000000002   -0.0000000001    0.0000000000
  -0.0000000002   -0.0000000001    0.0000000000
  -0.0000000002   -0.0000000001    0.0000000000
  -0.0000000002   -0.0000000001    0.0000000000
  -0.0000000002   -0.0000000001    0.0000000000
  -0.0000000002   -0.0000000001    0.0000000000
  -0.0000000002   -0.0000000001   -0.0000000200
  -0.0000000002   -0.0000000001   -0.0000000200
  -0.0000000002   -0.0000000001   -0.0000000200
  -0.0000000002   -0.0000000001   -0.0000000200
  -0.0000000002   -0.0000000001   -0.0000000200
  -0.0000000002   -0.0000000001   -0.0000000200
  -0.0000000002   -0.0000000001   -0.0000000200
  -0.0000000002   -0.0000000001   -0.0000000200
  -0.0000000102   -0.0000000101   -0.0000000100
  -0.0000000102   -0.0000000101   -0.0000000100
  -0.0000000102   -0.0000000101   -0.0000000100
  -0.0000000102   -0.0000000101   -0.0000000100
  -0.0000000102   -0.0000000101   -0.0000000100
  -0.0000572702   -0.0000254701   -0.0000152500
  -0.0000000102   -0.0000000101   -0.0000000100
  -0.0000641502   -0.0000681101   -0.0000563200
  -0.0000000002   -0.0000000201    0.0000000000
  -0.0000185502    0.0000363099    0.0000663200
  -0.0000000002   -0.0000000201    0.0000000000
  -0.0000000002   -0.0000000201    0.0000000000
  -0.0000000002   -0.0000000201    0.0000000000