LAMMPS data file via write_data, version 2 Aug 2023, timestep = 234, units = metal

39 atoms
2 atom types

-0.07924557073666678 8.631245570736679 xlo xhi
-0.07924557073666678 8.631245570736679 ylo yhi
-0.07924557073666678 8.631245570736679 zlo zhi

0 0 0 xy xz yz

Masses

1 24.32
2 65.39

Atoms # atomic

8 2 -0.07924557073666641 1.902829333942895 -0.07924557073666638 0 0 0
10 2 -0.0792455707366665 -0.07924557073666678 1.9028293339428957 0 0 0
12 2 1.9028293339428952 -0.0792455707366666 -0.07924557073666562 0 0 0
27 2 1.8208156404914022 1.8208156404914018 1.8208156404914022 0 0 0
1 1 4.276000000000006 2.5766872769430025 -0.07924557073666665 0 0 0
3 1 -0.07924557073666678 4.276000000000005 2.5766872769430034 0 0 0
18 2 1.3042138000753383 4.276000000000006 -0.0792455707366662 0 0 0
30 2 2.9092060721965933 4.276000000000006 2.0116701990822006 0 0 0
13 2 6.649170666057117 -0.07924557073666667 -0.07924557073666633 0 0 0
20 2 6.731184359508611 1.8208156404914024 1.8208156404914024 0 0 0
38 2 4.276000000000007 2.011670199082199 2.9092060721965933 0 0 0
19 2 7.247786199924674 4.276000000000006 -0.07924557073666638 0 0 0
28 2 5.642793927803418 4.276000000000006 2.0116701990821997 0 0 0
16 2 4.276000000000006 -0.07924557073666678 1.3042138000753387 0 0 0
9 2 -0.07924557073666678 6.649170666057117 -0.07924557073666601 0 0 0
22 2 1.8208156404914024 6.731184359508611 1.8208156404914022 0 0 0
2 1 4.276000000000005 5.97531272305701 -0.07924557073666624 0 0 0
25 2 6.731184359508611 6.73118435950861 1.820815640491402 0 0 0
37 2 4.276000000000006 6.540329800917813 2.909206072196594 0 0 0
5 1 2.5766872769430034 -0.07924557073666678 4.276000000000006 0 0 0
14 2 -0.07924557073666669 1.3042138000753383 4.276000000000007 0 0 0
21 2 1.8208156404914027 1.8208156404914015 6.731184359508611 0 0 0
34 2 2.0116701990821997 2.9092060721965933 4.276000000000007 0 0 0
17 2 4.276000000000005 -0.07924557073666676 7.247786199924675 0 0 0
36 2 4.276000000000007 2.011670199082199 5.64279392780342 0 0 0
4 1 -0.07924557073666678 4.276000000000005 5.9753127230570104 0 0 0
29 2 2.9092060721965933 4.276000000000006 6.540329800917813 0 0 0
6 1 5.9753127230570104 -0.07924557073666678 4.276000000000006 0 0 0
26 2 6.731184359508611 1.8208156404914013 6.73118435950861 0 0 0
33 2 6.540329800917813 2.9092060721965933 4.276000000000007 0 0 0
31 2 5.642793927803419 4.276000000000006 6.540329800917815 0 0 0
11 2 -0.079245570736666 -0.07924557073666678 6.649170666057118 0 0 0
15 2 -0.07924557073666678 7.247786199924674 4.276000000000006 0 0 0
24 2 1.820815640491403 6.73118435950861 6.731184359508612 0 0 0
32 2 2.0116701990821997 5.642793927803419 4.276000000000007 0 0 0
7 2 4.276000000000006 4.276000000000007 4.276000000000006 0 0 0
39 2 4.276000000000007 6.540329800917813 5.642793927803419 0 0 0
23 2 6.731184359508611 6.73118435950861 6.73118435950861 0 0 0
35 2 6.540329800917813 5.642793927803418 4.276000000000007 0 0 0

Velocities

8 -7.522430061479633e-15 -2.116146560955346e-05 -1.0938897767411741e-15
10 -5.214086494051246e-15 -7.810285669189834e-15 -2.1161465617350865e-05
12 -2.1161465616110395e-05 6.4686203248949384e-15 7.112853442641122e-15
27 -4.742091075486521e-06 -4.74209107276333e-06 -4.742091084270602e-06
1 1.0575950117817899e-15 -2.3847843525454724e-05 -5.221946543790019e-15
3 -2.841126426615005e-15 2.6278006056620686e-15 -2.3847843529849354e-05
18 -2.4116926702028693e-05 9.490695977250829e-16 1.356940537017121e-15
30 -7.793331967461188e-06 -5.104834960677863e-15 -8.138959051431035e-06
13 2.1161465620384632e-05 4.077115648497053e-15 1.101926286244496e-15
20 4.742091074487146e-06 -4.742091082684466e-06 -4.7420910882281955e-06
38 2.2809625264716905e-15 -8.138959050317422e-06 -7.793331949488016e-06
19 2.411692673097726e-05 -2.165107057837206e-15 1.8408090752287083e-15
28 7.793331975254074e-06 8.462740007950932e-15 -8.138959046933822e-06
16 -1.268799006115448e-15 2.2401394721106337e-16 -2.4116926698318184e-05
9 -1.9503360260378297e-15 2.1161465613704364e-05 7.668249002361779e-15
22 -4.742091089845492e-06 4.742091078104258e-06 -4.7420910919405215e-06
2 -3.12504647836611e-16 2.3847843537190694e-05 -4.990115648175447e-15
25 4.74209108012043e-06 4.7420910713915395e-06 -4.742091090384987e-06
37 -1.37956245607692e-15 8.138959058022965e-06 -7.793331953758497e-06
5 -2.3847843520082468e-05 -6.753463904798535e-16 4.579565084358859e-15
14 -3.634427627605296e-15 -2.4116926689834275e-05 1.2580387884756753e-17
21 -4.7420910837847504e-06 -4.742091083656067e-06 4.742091073484415e-06
34 -8.13895904691702e-06 -7.793331947466454e-06 4.001897338761013e-15
17 -7.419305424811547e-16 -1.8652067433187777e-15 2.4116926703084923e-05
36 6.5466724141923294e-15 -8.138959049383394e-06 7.79333195301829e-06
4 1.0307807623571661e-15 2.3280674721076538e-15 2.384784354111923e-05
29 -7.793331951713892e-06 1.1253366068446828e-14 8.1389590593225e-06
6 2.384784353287047e-05 4.867709686554059e-15 1.4006046202202049e-15
26 4.742091076397644e-06 -4.742091093447054e-06 4.742091083221883e-06
33 8.138959058988536e-06 -7.793331959507834e-06 -1.7429512338964483e-15
31 7.79333195107455e-06 1.2452575496346194e-14 8.13895905849626e-06
11 -4.098368655117693e-15 6.933942425420103e-15 2.1161465627121383e-05
15 -1.296854634349527e-15 2.4116926686873183e-05 -2.535639125786145e-15
24 -4.742091072505651e-06 4.742091056468431e-06 4.7420910584215745e-06
32 -8.138959043757914e-06 7.793331955859137e-06 1.2680316595523761e-14
7 -3.0149348686128414e-14 -1.8948461774804228e-14 -1.1605790333245556e-14
39 2.7035787160355968e-15 8.138959063701822e-06 7.793331962878896e-06
23 4.742091061019434e-06 4.742091062234744e-06 4.742091069518391e-06
35 8.138959055888666e-06 7.793331959132647e-06 -2.1717541327500323e-16
