Generated by pymatgen.io.lammps.data.LammpsData

39  atoms

 2  atom types

0.000000 8.552000  xlo xhi
0.000000 8.552000  ylo yhi
0.000000 8.552000  zlo zhi

Masses

1  24.305
2  65.409

Atoms

1   1 4.276000 2.736640  0.000000
2   1 4.276000 5.815360  0.000000
3   1 0.000000 4.276000  2.736640
4   1 0.000000 4.276000  5.815360
5   1 2.736640 0.000000  4.276000
6   1 5.815360 0.000000  4.276000
7   2 4.276000 4.276000  4.276000
8   2 0.000000 2.009720 -0.000000
9   2 0.000000 6.542280 -0.000000
10  2 0.000000 0.000000  2.009720
11  2 0.000000 0.000000  6.542280
12  2 2.009720 0.000000 -0.000000
13  2 6.542280 0.000000 -0.000000
14  2 0.000000 1.368320  4.276000
15  2 0.000000 7.183680  4.276000
16  2 4.276000 0.000000  1.368320
17  2 4.276000 0.000000  7.183680
18  2 1.368320 4.276000  0.000000
19  2 7.183680 4.276000 -0.000000
20  2 6.653456 1.898544  1.898544
21  2 1.898544 1.898544  6.653456
22  2 1.898544 6.653456  1.898544
23  2 6.653456 6.653456  6.653456
24  2 1.898544 6.653456  6.653456
25  2 6.653456 6.653456  1.898544
26  2 6.653456 1.898544  6.653456
27  2 1.898544 1.898544  1.898544
28  2 5.618664 4.276000  2.078136
29  2 2.933336 4.276000  6.473864
30  2 2.933336 4.276000  2.078136
31  2 5.618664 4.276000  6.473864
32  2 2.078136 5.618664  4.276000
33  2 6.473864 2.933336  4.276000
34  2 2.078136 2.933336  4.276000
35  2 6.473864 5.618664  4.276000
36  2 4.276000 2.078136  5.618664
37  2 4.276000 6.473864  2.933336
38  2 4.276000 2.078136  2.933336
39  2 4.276000 6.473864  5.618664

