ITEM: TIMESTEP
0
ITEM: NUMBER OF ATOMS
2
ITEM: BOX BOUNDS xy xz yz pp pp pp
-1.3300000000000001e+00 2.6600000000000001e+00 -1.3300000000000001e+00
0.0000000000000000e+00 2.3036275740666068e+00 0.0000000000000000e+00
0.0000000000000000e+00 4.9369600000000009e+00 0.0000000000000000e+00
ITEM: ATOMS id type xs ys zs
1 1 0 0 0
2 1 0.333333 0.666667 0.5
ITEM: TIMESTEP
91
ITEM: NUMBER OF ATOMS
2
ITEM: BOX BOUNDS xy xz yz pp pp pp
-1.4478654290346715e+00 2.7189327145173348e+00 -1.3889327145173356e+00
-5.1037227885989196e-02 2.3546648019525946e+00 0.0000000000000000e+00
2.1943781707016016e-01 4.7175221829298319e+00 0.0000000000000000e+00
ITEM: ATOMS id type xs ys zs
1 1 3.38874e-17 -7.21088e-17 -2.71503e-16
2 1 0.333333 0.666667 0.5
ITEM: TIMESTEP
92
ITEM: NUMBER OF ATOMS
2
ITEM: BOX BOUNDS xy xz yz pp pp pp
-1.4478654290346715e+00 2.7189327145173348e+00 -1.3889327145173356e+00
-5.1037227885989196e-02 2.3546648019525946e+00 0.0000000000000000e+00
2.1943781707016016e-01 4.7175221829298319e+00 0.0000000000000000e+00
ITEM: ATOMS id type xs ys zs
1 1 -2.47896e-17 1 1
2 1 0.333333 0.666667 0.5
ITEM: TIMESTEP
93
ITEM: NUMBER OF ATOMS
2
ITEM: BOX BOUNDS xy xz yz pp pp pp
-1.4478654288586326e+00 2.7189327144293154e+00 -1.3889327144293162e+00
-5.1037227809762060e-02 2.3546648018763676e+00 0.0000000000000000e+00
2.1943781720862560e-01 4.7175221827913667e+00 0.0000000000000000e+00
ITEM: ATOMS id type xs ys zs
1 1 3.15884e-17 1 1
2 1 0.333333 0.666667 0.5
ITEM: TIMESTEP
94
ITEM: NUMBER OF ATOMS
2
ITEM: BOX BOUNDS xy xz yz pp pp pp
-1.4478654288586326e+00 2.7189327144293154e+00 -1.3889327144293162e+00
-5.1037227809762060e-02 2.3546648018763676e+00 0.0000000000000000e+00
2.1943781720862560e-01 4.7175221827913667e+00 0.0000000000000000e+00
ITEM: ATOMS id type xs ys zs
1 1 1.11522e-16 1 1
2 1 0.333333 0.666667 0.5
