16   
1    

1    
  0.0052544315727772   0.0000000000000000   0.0085082870689112
  -0.0224999011    0.0000387038   -0.0371757011
   0.0110063989   -0.0000021241   -0.0011152511
   0.0024853689   -0.0049195000   -0.0011119011
   0.0024798489    0.0049207000   -0.0011174811
  -0.0000784673    0.0000003804    0.0007594489
   0.0001815599   -0.0000013983   -0.0000759157
  -0.0000282016   -0.0001215650   -0.0000754534
  -0.0000315087    0.0001225580   -0.0000763634
  -0.0026460511    0.0014508600    0.0038165889
   0.0054061089    0.0031889900    0.0086780789
  -0.0001251831   -0.0046585500    0.0062723789
   0.0004872009    0.0000006193    0.0007741379
   0.0057587289   -0.0034224800    0.0092465189
  -0.0027280211   -0.0014871600    0.0038884089
  -0.0001606221    0.0048893400    0.0065403689
   0.0004927409    0.0000006254    0.0007721369
