LAMMPS data file via write_data, version 2 Aug 2023, timestep = 94, units = metal

2 atoms
1 atom types

-0.05893271442931641 2.7189327144293154 xlo xhi
-0.05103722780976206 2.3546648018763676 ylo yhi
0.2194378172086256 4.717522182791367 zlo zhi
-1.3889327144293162 0 0 xy xz yz

Masses

1 65.39

Atoms # atomic

1 1 -1.4478654288586321 2.354664801876367 4.717522182791367 0 -1 -1
2 1 -0.05893271442931566 1.552764125314324 2.468479999999995 0 0 0

Velocities

1 0 0 0
2 0 0 0
