112
Lattice="10.883343691778 0.0 0.0 0.0 17.69430886024 0.0 0.0 0.0 30.60614994587" Properties=species:S:1:pos:R:3:forces:R:3:energies:R:1 energy=-222.811051333261 stress="0.0004465650164956549 -3.2648906909041104e-06 6.4284773496239036e-06 -3.2648906909041104e-06 0.0004687550929825117 -1.7004000216057046e-06 6.4284773496239036e-06 -1.7004000216057046e-06 1.1781781687922967e-07" free_energy=-222.811051333261 pbc="T T F"
Zn       4.09126671      11.02852725      19.07017252       0.01233500       0.00246532      -0.00118532      -1.22163813
Zn       3.65969129       2.25944479      19.12894283      -0.03098316      -0.00052891       0.00106503      -1.24126512
Zn       9.52824936      11.06342120      19.01813388       0.01480937       0.00633500       0.00085431      -0.54765868
Zn       9.96722675       2.07098965      19.08730865      -0.01454053      -0.01834704       0.00029493      -1.00092603
Zn       7.22365239      15.43486407      11.47720710       0.03098313       0.00052890      -0.00106504      -1.24126513
Zn       6.79207713       6.66578156      11.53597740      -0.01233594      -0.00246490       0.00118533      -1.22163808
Zn       0.91611692      15.62331924      11.51884130       0.01454082       0.01834703      -0.00029491      -1.00092601
Zn       1.35509414       6.63088760      11.58801606      -0.01480920      -0.00633505      -0.00085421      -0.54765867
Mg       6.84464847       9.38434384      19.05588938      -0.01614595      -0.00193424       0.00496870      -2.03548655
Mg       6.64590231       0.82056872      19.19597637       0.01470604       0.00573484      -0.01230671      -2.12407662
Mg       1.35880537       9.32180231      18.84305067      -0.00767261      -0.00728059       0.01725242      -1.83660832
Mg       1.40822798       0.25505524      18.85861337       0.01420102      -0.00773126      -0.01160029      -1.82453054
Mg       4.30347866      14.04047416      11.37980617      -0.02010909       0.01182005       0.00637772      -2.13923134
Mg       4.06390639       4.87878321      11.73831710       0.00415281       0.02061928      -0.00910132      -1.80951552
Mg       9.56274116      13.59443050      11.74671698      -0.00197069      -0.01481885       0.02027285      -1.82080512
Mg       9.52901752       4.97489665      11.57605439       0.00738015       0.01012126      -0.00510141      -2.05505217
Mg       9.52453836       8.37250656      11.76309931       0.00767257       0.00728096      -0.01725212      -1.83660833
Mg       4.03869529       8.30996503      11.55026055       0.01614595       0.00193424      -0.00496868      -2.03548656
Mg       9.47511570      17.43925361      11.74753656      -0.01420100       0.00773131       0.01160033      -1.82453054
Mg       4.23744140      16.87374016      11.41017358      -0.01470597      -0.00573503       0.01230663      -2.12407663
Mg       1.35432610      12.71941200      19.03009573      -0.00738065      -0.01011959       0.00510021      -2.05505235
Mg       1.32060253       4.09987837      18.85943295       0.00197069       0.01481881      -0.02027282      -1.82080512
Mg       6.81943730      12.81552569      18.86783283      -0.00415280      -0.02061934       0.00910135      -1.80951550
Mg       6.57986504       3.65383469      19.22634378       0.02010916      -0.01181986      -0.00637780      -2.13923134
Zn       5.48419282       6.56747060      18.28122841       0.00023276      -0.00466493       0.00785153      -0.86467566
Zn       5.51334642      15.51023892      18.19435063      -0.00914825       0.00684739       0.00574008      -0.89097538
Zn       0.07952980       6.67929206      18.22919868       0.00029019       0.00787495      -0.00127464      -0.92193299
Zn       0.15783821      15.37012728      18.25454295      -0.00206679      -0.00789688      -0.00754836      -0.91761054
Zn       5.39915085      11.12683827      12.32492153      -0.00023280       0.00466494      -0.00785156      -0.86467566
Zn       5.36999726       2.18406994      12.41179929       0.00914824      -0.00684738      -0.00574008      -0.89097537
Zn      10.80381390      11.01501679      12.37695127      -0.00029010      -0.00787494       0.00127468      -0.92193300
Zn      10.72550546       2.32418158      12.35160700       0.00206693       0.00789672       0.00754838      -0.91761055
Zn       8.24127346      11.00972088      12.33390085       0.00202523       0.00910374       0.01167180      -0.91836260
Zn       2.85224515      11.10115398      12.32621612      -0.00928784      -0.00571810       0.00267536      -0.84867141
Zn       8.17070012       2.28779040      12.42615989      -0.00237079      -0.00464347       0.00438069      -0.91996200
Zn       2.79828028       2.14040680      12.35651819       0.00575838      -0.00843537      -0.00309529      -0.85301749
Zn       2.71264358      15.40651848      18.17999005       0.00237065       0.00464337      -0.00438070      -0.91996197
Zn       2.64207024       6.68458797      18.27224907      -0.00202521      -0.00910368      -0.01167181      -0.91836262
Zn       8.08506340      15.55390206      18.24963174      -0.00575837       0.00843535       0.00309529      -0.85301749
Zn       8.03109851       6.59315487      18.27993383       0.00928783       0.00571812      -0.00267535      -0.84867142
Zn       4.05765168       8.79812826      17.51178632       0.00049941       0.00276520      -0.00189285      -1.08113256
Zn       4.01517466      17.59969428      17.38441876      -0.00317003      -0.00783553       0.00637770      -1.06157406
Zn       9.48373009       8.81178130      17.71186944      -0.01220311       0.01684703      -0.00688842      -1.10730575
Zn       9.70684446      17.58254084      17.56942375       0.00205787       0.00721776      -0.00975187      -1.03301225
Zn       6.92694900      13.23970873      13.06217040       0.01621792      -0.00398379      -0.00129598      -1.08993031
Zn       6.71162457       4.40567282      13.13497354      -0.00711400       0.00076427       0.00919362      -1.08614902
Zn       1.26538448      13.14718916      13.19106007      -0.00860192       0.00299468      -0.01804592      -0.97247510
Zn       1.36225812       4.39585377      12.91951322      -0.00477675      -0.00626282       0.00012734      -1.11174819
Zn       6.82569201       8.89618063      13.09436362      -0.00049943      -0.00276539       0.00189280      -1.08113255
Zn       1.39961363       8.88252751      12.89428053       0.01220305      -0.01684688       0.00688842      -1.10730574
Zn       6.86816902       0.09461459      13.22173117       0.00317005       0.00783555      -0.00637770      -1.06157406
Zn       1.17649923       0.11176802      13.03672619      -0.00205791      -0.00721771       0.00975186      -1.03301225
Zn       4.17171914      13.28863604      17.47117637       0.00711395      -0.00076424      -0.00919360      -1.08614898
Zn       3.95639468       4.45460014      17.54397953      -0.01621791       0.00398378       0.00129595      -1.08993032
Zn       9.52108557      13.29845504      17.68663677       0.00477679       0.00626303      -0.00012742      -1.11174819
Zn       9.61795919       4.54711972      17.41508994       0.00860193      -0.00299482       0.01804582      -0.97247510
Zn       8.13243742      11.06305357      16.76417371      -0.00649965      -0.00266319       0.00330527      -1.15923835
Zn       8.18805917       2.26955838      16.91380455       0.00836706       0.00115003       0.01907453      -1.14723214
Zn       2.76780418      11.03083986      16.71949497       0.00183382       0.00151156       0.00578077      -1.17675057
Zn       2.65161300       2.18310758      16.73867118       0.00056717       0.00339562       0.01212908      -1.22318036
Zn       2.69528450      15.42475048      13.69234540      -0.00836705      -0.00115001      -0.01907463      -1.14723215
Zn       2.75090624       6.63125532      13.84197617       0.00649967       0.00266315      -0.00330524      -1.15923836
Zn       8.23173070      15.51120129      13.86747875      -0.00056717      -0.00339562      -0.01212905      -1.22318036
Zn       8.11553949       6.66346899      13.88665499      -0.00183378      -0.00151155      -0.00578072      -1.17675058
Zn      10.83268689       6.67064154      13.86962823      -0.00481870      -0.01008634      -0.00133126      -1.14293157
Zn       5.44708110       6.63692554      13.88397054       0.00040186      -0.00426199      -0.00679319      -1.17801507
Zn      10.87956501      15.44995593      13.88179292       0.00186252      -0.00925568       0.00286773      -1.21162516
Zn       5.59695142      15.53062045      13.92167770       0.01817613      -0.00297760      -0.00694645      -1.04832778
Zn       0.05065678      11.02366728      16.73652181       0.00481874       0.01008636       0.00133110      -1.14293160
Zn       0.00377867       2.24435293      16.72435704      -0.00186254       0.00925570      -0.00286775      -1.21162516
Zn       5.43626258      11.05738333      16.72217940      -0.00040175       0.00426200       0.00679303      -1.17801508
Zn       5.28639227       2.16368843      16.68447225      -0.01817613       0.00297761       0.00694641      -1.04832778
Mg       6.75507470       4.95299152      16.12380346      -0.00778304       0.00090140      -0.01063758      -1.65586042
Mg       6.85112707      13.85670085      15.98200623      -0.00680670      -0.00666303      -0.00799085      -1.63077188
Mg       1.34183563       5.02280451      15.89190226       0.01208229      -0.00457718       0.01385147      -1.61853479
Mg       1.41700707      13.72846259      16.03636500       0.00719901       0.01763822      -0.00564297      -1.64899673
Mg       4.12531196       9.40067478      14.53212021      -0.00319452      -0.00075794       0.00234526      -1.64879162
Mg       4.07307947       0.46774951      14.45209754      -0.00227071       0.00464946       0.00353862      -1.65130556
Mg       9.49244276       9.40559887      14.69052319       0.00411593      -0.00036941      -0.00470304      -1.61969130
Mg       9.49972586       0.61526313      14.72601684      -0.00871553       0.00100888      -0.01222341      -1.63177098
Mg       9.54150808      12.67150437      14.71424769      -0.01208230       0.00457713      -0.01385145      -1.61853479
Mg       4.12826897      12.74131736      14.48234647       0.00778306      -0.00090143       0.01063758      -1.65586042
Mg       9.46633661       3.96584620      14.56978499      -0.00719899      -0.01763815       0.00564318      -1.64899672
Mg       4.03221663       3.83760803      14.62414368       0.00680670       0.00666300       0.00799087      -1.63077189
Mg       1.38361782      17.07904573      15.88013310       0.00871555      -0.00100890       0.01222342      -1.63177099
Mg       1.39090093       8.28871000      15.91562677      -0.00411593       0.00036940       0.00470307      -1.61969131
Mg       6.81026421      17.22655937      16.15405240       0.00227071      -0.00464947      -0.00353860      -1.65130556
Mg       6.75803170       8.29363408      16.07402972       0.00319454       0.00075794      -0.00234525      -1.64879161
Zn       4.06767144       6.61676000      16.02023838      -0.00233082      -0.00334077      -0.00559705      -1.22698002
Zn       4.03577865      15.41619885      15.87867998      -0.00984116       0.00240128       0.01545814      -1.23046374
Zn       9.47022975       6.75333912      16.02799706       0.00991098       0.01879705      -0.00292196      -1.22280376
Zn       9.56402728      15.42630575      16.03642409       0.00738663       0.01111294      -0.02065917      -1.21058575
Zn       6.81567226      11.07754886      14.58591151       0.00233074       0.00334083       0.00559722      -1.22698002
Zn       6.84756501       2.27811002      14.72746994       0.00984119      -0.00240129      -0.01545805      -1.23046374
Zn       1.41311393      10.94096974      14.57815291      -0.00991108      -0.01879705       0.00292198      -1.22280377
Zn       1.31931641       2.26800309      14.56972587      -0.00738665      -0.01111297       0.02065917      -1.21058575
O        5.62141884      10.43917882      20.23003013       0.01391952      -0.00078387      -0.01719058      -5.61511732
O        5.41376532       2.19640768      19.82770610      -0.03228717       0.00338735       0.02525475      -7.04215319
O        1.20338834      10.93063417      19.95212638       0.00578721      -0.00596789      -0.00074213      -5.84612263
O        1.89892940       1.69297683      20.14028233      -0.01763184       0.03559208      -0.00190177      -5.74174221
O        2.85107171      15.41862323      11.47052242       0.01902129       0.00606352       0.00853380      -7.31702058
O        3.91716429       6.50414270      10.64555142       0.00614533      -0.01539563       0.01408320      -5.84176053
O       10.13014669      14.99779922      10.45093154       0.01188497       0.03632593      -0.01206814      -5.77003890
O        8.31757006       6.03395685      10.39806830       0.01000216      -0.01941007      -0.00956861      -5.61238331
O        9.67995544       6.76367470      10.65402370      -0.00578653       0.00596714       0.00074242      -5.84612264
O        5.26192491       7.25513004      10.37611976      -0.01391901       0.00078368       0.01719097      -5.61511733
O        8.98441429      16.00133202      10.46586760       0.01763203      -0.03559224       0.00190175      -5.74174220
O        5.46957838      15.49790119      10.77844380       0.03228700      -0.00338735      -0.02525461      -7.04215316
O        2.56577380      11.66035217      20.20808163      -0.01000210       0.01940882       0.00956868      -5.61238321
O        0.75319702       2.69650963      20.15521840      -0.01188519      -0.03632578       0.01206812      -5.77003890
O        6.96617947      11.19016621      19.96059852      -0.00614537       0.01539559      -0.01408328      -5.84176051
O        8.03227200       2.27568564      19.13562755      -0.01902150      -0.00606351      -0.00853374      -7.31702057
