112
Lattice="10.864559974718 0.0 0.0 0.0 17.642796801724003 0.0 0.0 0.0 31.065173333042" Properties=species:S:1:pos:R:3:forces:R:3:energies:R:1 energy=-164.06656784361047 stress="0.0004641055617399205 3.957508449135704e-06 1.3124666283550649e-05 3.957508449135704e-06 0.00040305633723959335 1.4880459973728912e-05 1.3124666283550649e-05 1.4880459973728912e-05 1.435801390459215e-06" free_energy=-164.06656784361047 pbc="T T F"
Zn       3.54749314      11.07028114      19.45645414      -0.01555929      -0.03109325       0.00299805      -0.85907174
Zn       4.01170487      -0.19245634      19.96242136      -0.00285129      -0.00492631      -0.00050089      -0.88272521
Zn       9.82705663      11.09663053      19.29393921      -0.03331459      -0.00777522      -0.00760084      -0.49338464
Zn       9.86238304       2.33660127      19.15874755      -0.00015687      -0.03266634       0.03570266      -0.71958220
Zn       6.85285516      17.83525308      11.10275179       0.00285061       0.00492739       0.00050300      -0.88272513
Zn       7.31706702       6.57251651      11.60871898       0.01555704       0.03108332      -0.00299549      -0.85907159
Zn       1.00217698      15.30619554      11.90642582       0.00015657       0.03266626      -0.03570291      -0.71958219
Zn       1.03750337       6.54616627      11.77123412       0.03331456       0.00777532       0.00760089      -0.49338465
Mg       6.75040240       9.18664322      19.36965031       0.01380246      -0.00778534      -0.02136003      -1.67231221
Mg       6.70935299       0.91763935      19.42294321      -0.01213317      -0.03793599       0.02364923      -1.59410161
Mg       1.34865372       9.21377327      19.04037182       0.01287567       0.00044541       0.00539649      -1.51577609
Mg       1.39832087       0.54429958      19.10893793      -0.04431568       0.01377678      -0.00795182      -1.57295981
Mg       4.02812716      13.64666942      11.93635891      -0.00356359      -0.00630999       0.00805932      -1.49768561
Mg       4.07005839       4.73519724      11.64307171      -0.00724621       0.01067133      -0.00171338      -1.67289348
Mg       9.56464949      13.63204505      12.17647470      -0.00542825       0.00689194       0.01071134      -1.36560046
Mg       9.56528439       4.74327373      11.90919791      -0.00129773       0.00919830      -0.00476299      -1.47853798
Mg       9.51590614       8.42902347      12.02480142      -0.01287435      -0.00044467      -0.00539546      -1.51577575
Mg       4.11415763       8.45615356      11.69552289      -0.01380317       0.00778576       0.02136228      -1.67231217
Mg       9.46623910      17.09849720      11.95623535       0.04431579      -0.01377674       0.00795215      -1.57295976
Mg       4.15520697      16.72515743      11.64223011       0.01213324       0.03793609      -0.02364912      -1.59410159
Mg       1.29927565      12.89952305      19.15597544       0.00129700      -0.00919798       0.00476264      -1.47853780
Mg       1.29991051       4.01075180      18.88869861       0.00542819      -0.00689208      -0.01071124      -1.36560045
Mg       6.79450159      12.90759956      19.42210160       0.00724618      -0.01067135       0.00171379      -1.67289351
Mg       6.83643281       3.99612734      19.12881446       0.00356361       0.00631032      -0.00805963      -1.49768561
Zn       5.42213691       6.57006034      18.35064238       0.00639620      -0.01833224      -0.00408250      -0.93364186
Zn       5.38038520      15.52831176      18.47323336      -0.00469558       0.00379285       0.02559551      -0.98152316
Zn       0.15989851       6.65942560      18.34683281      -0.03104235      -0.02981772      -0.02523511      -0.91228536
Zn       0.17277913      15.53910675      18.42404913       0.01047433      -0.01065631      -0.00865018      -0.91014501
Zn       5.44242306      11.07273647      12.71453095      -0.00639623       0.01833214       0.00408250      -0.93364186
Zn       5.48417479       2.11448505      12.59193998       0.00469550      -0.00379316      -0.02559573      -0.98152316
Zn      10.70466148      10.98337120      12.71834054       0.03104202       0.02981762       0.02523488      -0.91228535
Zn      10.69178086       2.10369005      12.64112420      -0.01047440       0.01065622       0.00865014      -0.91014501
Zn       8.17889079      11.04806109      12.81107835       0.00213584       0.01953705       0.00434526      -0.95393407
Zn       2.87915156      11.01616076      12.62559937      -0.02170179       0.01417439       0.02088990      -0.90291123
Zn       8.13484453       2.13869307      12.62958603       0.02748231      -0.00898732      -0.01985807      -1.03155945
Zn       2.92045659       2.04147788      12.54478762       0.02207029       0.03615749      -0.01606272      -0.82966304
Zn       2.72971543      15.50410376      18.43558732      -0.02748216       0.00898697       0.01985786      -1.03155946
Zn       2.68566919       6.59473573      18.25409500      -0.00213574      -0.01953722      -0.00434538      -0.95393406
Zn       7.94410339      15.60131894      18.52038572      -0.02207025      -0.03615757       0.01606269      -0.82966305
Zn       7.98540842       6.62663605      18.43957397       0.02170192      -0.01417452      -0.02089000      -0.90291123
Zn       4.10136023       8.74467031      17.57489466      -0.02237783      -0.02446722       0.01017835      -1.04665806
Zn       4.03891746      17.67538612      17.41441150      -0.01303260       0.01128720      -0.01505056      -1.14531417
Zn       9.46608348       8.81398593      17.99416614      -0.01655870       0.00366165      -0.01414440      -1.10371708
Zn       9.48040366      17.67100407      18.08586600      -0.00326528       0.02672948      -0.03562196      -1.08597056
Zn       6.81391524      13.20023281      13.38703085       0.00453848       0.02948991       0.01105984      -1.05662583
Zn       6.77552981       4.33040611      13.37952676       0.01316640       0.01686746      -0.00087249      -1.05759853
Zn       1.36390017      13.10545866      13.23997280       0.02966178       0.00665577       0.02183677      -1.09461585
Zn       1.38036612       4.26957632      13.06381518       0.02594104       0.02171927      -0.00740532      -1.09215149
Zn       6.76319975       8.89812648      13.49027867       0.02237773       0.02446734      -0.01017818      -1.04665815
Zn       1.39847649       8.82881087      13.07100719       0.01655871      -0.00366175       0.01414434      -1.10371706
Zn       6.82564252      -0.03258930      13.65076191       0.01303259      -0.01128727       0.01504973      -1.14531417
Zn       1.38415632      -0.02820728      12.97930735       0.00326528      -0.02672933       0.03562195      -1.08597056
Zn       4.08903017      13.31239058      17.68564657      -0.01316630      -0.01686615       0.00087220      -1.05759861
Zn       4.05064474       4.44256396      17.67814249      -0.00453849      -0.02948961      -0.01105982      -1.05662583
Zn       9.48419385      13.37322048      18.00135816      -0.02594100      -0.02171920       0.00740532      -1.09215149
Zn       9.50065980       4.53733812      17.82520053      -0.02966176      -0.00665553      -0.02183682      -1.09461586
Zn       8.05770947      11.08148973      17.36408046       0.02873845      -0.00487672       0.02933404      -1.22422847
Zn       8.20399322       2.26179103      17.15145488      -0.01521859      -0.00161348      -0.01737117      -1.22796246
Zn       2.77509977      11.02616280      16.91653124      -0.02735471      -0.01226066      -0.01257218      -1.19528042
Zn       2.72486833       2.25620513      17.02613493       0.00841824      -0.00365314      -0.01055634      -1.16138966
Zn       2.66056677      15.38100577      13.91371846       0.01521852       0.00161345       0.01737110      -1.22796246
Zn       2.80685054       6.56130707      13.70109289      -0.02873873       0.00487674      -0.02933423      -1.22422846
Zn       8.13969167      15.38659168      14.03903841      -0.00841845       0.00365311       0.01055624      -1.16138966
Zn       8.08946029       6.61663403      14.14864215       0.02735384       0.01226029       0.01257135      -1.19528043
Zn      10.72639013       6.59507921      14.05279514      -0.00171847       0.01713130      -0.00894915      -1.16178820
Zn       5.46241899       6.58427712      13.62536800      -0.01071463      -0.00179140      -0.00252572      -1.20198766
Zn      10.77535884      15.43560298      14.28021745      -0.01832141      -0.01123403       0.00316655      -1.15495389
Zn       5.47357012      15.37307682      13.92594038       0.03389089       0.00108778      -0.01257222      -1.11809886
Zn       0.13816984      11.04771759      17.01237820       0.00171873      -0.01713130       0.00894894      -1.16178821
Zn       0.08920113       2.20719382      16.78495590       0.01832153       0.01123402      -0.00316671      -1.15495390
Zn       5.40214091      11.05851971      17.43980536       0.01071551       0.00179109       0.00252541      -1.20198767
Zn       5.39098982       2.26971999      17.13923296      -0.03389057      -0.00108785       0.01257205      -1.11809887
Mg       6.74890563       4.97821360      16.21266015       0.00115307       0.00599028      -0.01865849      -1.63483998
Mg       6.75960199      13.86913054      16.35378068      -0.00375394      -0.01811296      -0.01346502      -1.64483325
Mg       1.40102726       4.98545425      15.96419234       0.00836765      -0.01930699       0.02040829      -1.59268344
Mg       1.42623588      13.80450798      16.20022126      -0.01611106       0.00046311      -0.00234239      -1.59876228
Mg       4.11275455       9.35825003      14.75042301      -0.00233645       0.00650261       0.00202603      -1.62999215
Mg       4.10518097       0.42906454      14.63741792      -0.00144722       0.00948342       0.02633541      -1.64795408
Mg       9.43905085       9.42817503      15.02563991       0.00286644      -0.01276782       0.00459597      -1.59440644
Mg       9.45941349       0.54487334      14.95289666      -0.00159562      -0.01013478      -0.01874728      -1.61130616
Mg       9.46353272      12.65734255      15.10098102      -0.00836764       0.01930697      -0.02040839      -1.59268345
Mg       4.11565435      12.66458320      14.85251318      -0.00115305      -0.00599030       0.01865851      -1.63483997
Mg       9.43832410       3.83828882      14.86495206       0.01611108      -0.00046312       0.00234242      -1.59876228
Mg       4.10495799       3.77366626      14.71139265       0.00375389       0.01811298       0.01346498      -1.64483325
Mg       1.40514649      17.09792346      16.11227667       0.00159563       0.01013477       0.01874728      -1.61130616
Mg       1.42550914       8.21462177      16.03953342      -0.00286644       0.01276785      -0.00459600      -1.59440643
Mg       6.75937901      17.21373225      16.42775542       0.00144722      -0.00948337      -0.02633536      -1.64795407
Mg       6.75180542       8.28454677      16.31475034       0.00233648      -0.00650256      -0.00202619      -1.62999214
Zn       4.12157459       6.56411498      15.91470402       0.01815383       0.00274033      -0.00015532      -1.18453230
Zn       4.06168275      15.43166437      16.06453197       0.01605466      -0.00502197       0.00835529      -1.21006370
Zn       9.47561981       6.68065659      16.26280637       0.00053425       0.01169267       0.00171720      -1.22951877
Zn       9.38889842      15.51677767      16.36448588      -0.00046232      -0.01947558      -0.01549698      -1.21120817
Zn       6.74298540      11.07868183      15.15046928      -0.01815384      -0.00274040       0.00015558      -1.18453231
Zn       6.80287724       2.21113244      15.00064130      -0.01605469       0.00502189      -0.00835458      -1.21006371
Zn       1.38894015      10.96214023      14.80236690      -0.00053409      -0.01169276      -0.00171644      -1.22951878
Zn       1.47566157       2.12601913      14.70068742       0.00046227       0.01947554       0.01549726      -1.21120818
H        6.23719092       9.45075144      21.02083860      -0.00546728       0.01724550       0.00869613      -2.45686901
H        5.38475219       0.27435822      20.73651920      -0.00016136      -0.00949095      -0.00606835      -3.09473688
H        2.77476759       9.77257232      20.19549578      -0.01128035      -0.02154561      -0.00722615      -3.03201888
H        2.62166261       0.47033396      20.61961453       0.01124059       0.00349351      -0.00807365      -3.08776940
H        4.08360813      15.03584098      10.71407949       0.00266729       0.00207960      -0.00637791      -3.05140324
H        4.26820476       4.71385082       9.90759222       0.00572597      -0.00411844      -0.00914026      -2.43917049
H       10.43307521      15.11268420      10.99006723       0.01065523       0.00381834       0.00724643      -3.14585679
H        8.07928448       5.28880954      10.82527055       0.00961590      -0.02367644      -0.01013866      -3.02672296
H        8.08979213       7.87022395      10.86967790       0.01128335       0.02155194       0.00722169      -3.03201937
H        4.62736903       8.19204537      10.04433487       0.00546801      -0.01724585      -0.00869811      -2.45686909
H        8.24289721      17.17246291      10.44555891      -0.01123910      -0.00349426       0.00807264      -3.08776952
H        5.47980787      17.36843859      10.32865419       0.00016040       0.00949065       0.00606777      -3.09473693
H        2.78527564      12.35398710      20.23990262      -0.00961732       0.02367899       0.01014092      -3.02672319
H        0.43148472       2.53011266      20.07510611      -0.01065500      -0.00381825      -0.00724626      -3.14585678
H        6.59635521      12.92894595      21.15758114      -0.00572597       0.00411847       0.00913988      -2.43917048
H        6.78095185       2.60695584      20.35109383      -0.00266730      -0.00207986       0.00637808      -3.05140324
