96   
5    

1    
  0.0052377462228626   0.0000000000000000   0.0085185688061369
  -0.0149857996   -0.0000120796   -0.0253129006
   0.0000376878   -0.0001709330   -0.0004024666
   0.0000308482   -0.0000027771   -0.0003106996
  -0.0002684726    0.0001779340   -0.0004944626
   0.0000002258    0.0000013076   -0.0000005997
   0.0000002258    0.0000013076   -0.0000005997
   0.0000002258    0.0000013076   -0.0000005997
   0.0000002258    0.0000013076   -0.0000005997
  -0.0000639445    0.0000010651    0.0057274294
   0.0002486324   -0.0000056961    0.0003634164
   0.0002236564   -0.0000131300    0.0003597724
   0.0002114594    0.0000227487    0.0003671584
  -0.0001396626    0.0000009003   -0.0001290246
   0.0000002258    0.0000013076    0.0000005986
   0.0000002258    0.0000013076    0.0000005986
   0.0000002258    0.0000013076    0.0000005986
  -0.0001433716    0.0001294820    0.0001581194
   0.0000000004    0.0000000000   -0.0000000006
   0.0001086784   -0.0001452250    0.0001723584
  -0.0001153816    0.0000164581    0.0001442374
   0.0001217914    0.0000233089    0.0000711975
   0.0000000004    0.0000000000   -0.0000000006
   0.0001186974    0.0000016749    0.0001304064
   0.0000786610   -0.0000250139    0.0000118329
   0.0000759337   -0.0001292300   -0.0000171694
   0.0013453804    0.0020761000    0.0017028594
  -0.0002835956   -0.0006760040    0.0007044304
   0.0001024544   -0.0001185070   -0.0000907880
  -0.0000006000    0.0000007093   -0.0000000006
  -0.0000006000    0.0000007093   -0.0000000006
  -0.0000006000    0.0000007093   -0.0000000006
  -0.0000006000    0.0000007093   -0.0000000006
   0.0001142324    0.0000477794    0.0001975414
   0.0033752104    0.0001087000    0.0021986494
  -0.0001475916    0.0000316855    0.0000276151
  -0.0001027866    0.0001044480   -0.0001423776
   0.0000007191    0.0000060933   -0.0000000006
   0.0000007191    0.0000060933   -0.0000000006
   0.0000007191    0.0000060933   -0.0000000006
   0.0000007191    0.0000060933   -0.0000000006
  -0.0004275846    0.0007006230    0.0007111594
   0.0000336671    0.0001044740    0.0000713577
   0.0012431204   -0.0022456000    0.0017136394
  -0.0000653365    0.0000216126   -0.0001948806
   0.0000017248    0.0000005299   -0.0000000006
   0.0000017248    0.0000005299   -0.0000000006
   0.0000017248    0.0000005299   -0.0000000006
   0.0000017248    0.0000005299   -0.0000000006
   0.0039832104   -0.0023350300    0.0015151594
   0.0007636524    0.0004767850   -0.0004988196
  -0.0000615194    0.0018490400    0.0005072734
   0.0003507594   -0.0000012410    0.0005082724
  -0.0000002250   -0.0000013075    0.0000005986
  -0.0000002250   -0.0000013075    0.0000005986
  -0.0000002250   -0.0000013075    0.0000005986
  -0.0000002250   -0.0000013075    0.0000005986
  -0.0000217670   -0.0000816636    0.0000213156
  -0.0001023546    0.0000326757   -0.0000447709
  -0.0001610816    0.0000456241   -0.0000119668
  -0.0000002250   -0.0000013075   -0.0000005997
  -0.0001144346   -0.0000278234   -0.0000367770
  -0.0000087236    0.0000854977    0.0000137280
  -0.0001597156   -0.0000623149   -0.0000118627
  -0.0000002250   -0.0000013075   -0.0000005997
   0.0001160344   -0.0004527790    0.0001309804
  -0.0000337705   -0.0000001461   -0.0000662559
   0.0013691504   -0.0007221390   -0.0002292026
   0.0021812104    0.0011938200    0.0005013374
   0.0000000004    0.0000000000   -0.0000000006
   0.0000000004    0.0000000000   -0.0000000006
   0.0000000004    0.0000000000   -0.0000000006
   0.0000000004    0.0000000000   -0.0000000006
  -0.0011892496    0.0007532800    0.0027033994
   0.0002224204    0.0000860461    0.0000205074
   0.0000449883   -0.0002478540   -0.0000584267
  -0.0000591679    0.0000088979   -0.0000175414
  -0.0000393667    0.0000275965   -0.0000399033
   0.0000006008   -0.0000007092   -0.0000000006
   0.0000006008   -0.0000007092   -0.0000000006
   0.0000006008   -0.0000007092   -0.0000000006
   0.0001105264   -0.0019684200    0.0035756494
  -0.0000436226   -0.0000438289   -0.0000151206
  -0.0001637496    0.0001094820   -0.0001785006
   0.0001506514    0.0000824772   -0.0000210689
   0.0000082728   -0.0000378579   -0.0000388601
  -0.0000007183   -0.0000060933   -0.0000000006
  -0.0000007183   -0.0000060933   -0.0000000006
  -0.0000007183   -0.0000060933   -0.0000000006
   0.0022030204    0.0012110600    0.0044444294
  -0.0001145986    0.0000832845   -0.0002199096
   0.0000039268    0.0000273735   -0.0000127186
   0.0000233711   -0.0001282540   -0.0001414136
   0.0000132583    0.0000029686   -0.0000379223
  -0.0000017240   -0.0000005298   -0.0000000006
  -0.0000017240   -0.0000005298   -0.0000000006
  -0.0000017240   -0.0000005298   -0.0000000006

1    
 -0.0052377462228626   0.0000000000000000  -0.0085185688061369
   0.0150560997   -0.0000113719    0.0252513995
  -0.0000366043    0.0001757290    0.0004030465
  -0.0000336207    0.0000028963    0.0003102225
   0.0002674947   -0.0001743980    0.0004956365
   0.0000002250    0.0000013076   -0.0000005997
   0.0000002250    0.0000013076   -0.0000005997
   0.0000002250    0.0000013076   -0.0000005997
   0.0000002250    0.0000013076   -0.0000005997
   0.0000598991    0.0000010599   -0.0057688905
  -0.0002502383    0.0000082999   -0.0003631165
  -0.0002248403    0.0000159511   -0.0003593005
  -0.0002127983   -0.0000203259   -0.0003668185
   0.0001383257    0.0000009052    0.0001296445
   0.0000002250    0.0000013076    0.0000005986
   0.0000002250    0.0000013076    0.0000005986
   0.0000002250    0.0000013076    0.0000005986
   0.0001434827   -0.0001311030   -0.0001589415
  -0.0000000003    0.0000000000   -0.0000000005
  -0.0001109263    0.0001471820   -0.0001736765
   0.0001163647   -0.0000153588   -0.0001438495
  -0.0001201693   -0.0000221966   -0.0000705791
  -0.0000000003    0.0000000000   -0.0000000005
  -0.0001166973   -0.0000021128   -0.0001295495
  -0.0000779222    0.0000242841   -0.0000117620
  -0.0000776916    0.0001317940    0.0000156648
  -0.0013881603   -0.0021689200   -0.0017444005
   0.0003075887    0.0007050900   -0.0007072405
  -0.0001044323    0.0001219300    0.0000905278
  -0.0000006008    0.0000007093   -0.0000000005
  -0.0000006008    0.0000007093   -0.0000000005
  -0.0000006008    0.0000007093   -0.0000000005
  -0.0000006008    0.0000007093   -0.0000000005
  -0.0000664404   -0.0000242837   -0.0002195185
  -0.0035470703   -0.0000962478   -0.0022895505
   0.0001508967   -0.0000208029   -0.0000279416
   0.0001067677   -0.0000923673    0.0001419765
   0.0000007184    0.0000060933   -0.0000000005
   0.0000007184    0.0000060933   -0.0000000005
   0.0000007184    0.0000060933   -0.0000000005
   0.0000007184    0.0000060933   -0.0000000005
   0.0004491167   -0.0007540930   -0.0007465645
  -0.0000290382   -0.0001040660   -0.0000725993
  -0.0012962003    0.0023496900   -0.0017793105
   0.0000686778   -0.0000219957    0.0001925125
   0.0000017241    0.0000005299   -0.0000000005
   0.0000017241    0.0000005299   -0.0000000005
   0.0000017241    0.0000005299   -0.0000000005
   0.0000017241    0.0000005299   -0.0000000005
  -0.0039989103    0.0023478300   -0.0015041205
  -0.0007204613   -0.0004540000    0.0004761525
   0.0000666254   -0.0019021500   -0.0005150165
  -0.0003502603   -0.0000012412   -0.0005067115
  -0.0000002257   -0.0000013076    0.0000005986
  -0.0000002257   -0.0000013076    0.0000005986
  -0.0000002257   -0.0000013076    0.0000005986
  -0.0000002257   -0.0000013076    0.0000005986
   0.0000191315    0.0000790766   -0.0000217245
   0.0001025327   -0.0000333924    0.0000436832
   0.0001582337   -0.0000490540    0.0000107440
  -0.0000002257   -0.0000013076   -0.0000005997
   0.0001153947    0.0000238352    0.0000362810
   0.0000072737   -0.0000896186   -0.0000140203
   0.0001595857    0.0000611391    0.0000107893
  -0.0000002257   -0.0000013076   -0.0000005997
  -0.0001296883    0.0004359150   -0.0001377235
   0.0000345813   -0.0000001515    0.0000671120
  -0.0013894703    0.0007287010    0.0002400945
  -0.0021178403   -0.0011466400   -0.0005052615
  -0.0000000003    0.0000000000   -0.0000000005
  -0.0000000003    0.0000000000   -0.0000000005
  -0.0000000003    0.0000000000   -0.0000000005
  -0.0000000003    0.0000000000   -0.0000000005
   0.0011520297   -0.0007291600   -0.0026471205
  -0.0002194523   -0.0000854499   -0.0000201547
  -0.0000439791    0.0002452740    0.0000586403
   0.0000595914   -0.0000097816    0.0000176182
   0.0000407783   -0.0000290531    0.0000390582
   0.0000006001   -0.0000007092   -0.0000000005
   0.0000006001   -0.0000007092   -0.0000000005
   0.0000006001   -0.0000007092   -0.0000000005
  -0.0001156703    0.0018744400   -0.0034430905
   0.0000427930    0.0000308032    0.0000155313
   0.0001635217   -0.0001211560    0.0001780525
  -0.0001503693   -0.0000947868    0.0000200314
  -0.0000097030    0.0000256018    0.0000381369
  -0.0000007191   -0.0000060933   -0.0000000005
  -0.0000007191   -0.0000060933   -0.0000000005
  -0.0000007191   -0.0000060933   -0.0000000005
  -0.0021115603   -0.0011496700   -0.0042426705
   0.0001109407   -0.0000853829    0.0002183955
  -0.0000065755   -0.0000285873    0.0000134197
  -0.0000264776    0.0001266900    0.0001391695
  -0.0000165131   -0.0000038412    0.0000371081
  -0.0000017247   -0.0000005299   -0.0000000005
  -0.0000017247   -0.0000005299   -0.0000000005
  -0.0000017247   -0.0000005299   -0.0000000005

17   
  0.0052377462228626   0.0000000000000000   0.0085185688061369
  -0.0001439012    0.0000284669    0.0001581612
   0.0000002252    0.0000013076   -0.0000006000
   0.0000210350   -0.0000937870    0.0002289282
  -0.0000260598    0.0000694702    0.0000882323
   0.0001205998    0.0001116500    0.0000704275
   0.0000002252    0.0000013076   -0.0000006000
   0.0001936918   -0.0000407235    0.0000828615
   0.0000020818   -0.0000669512    0.0000580023
   0.0001219978    0.0006915840    0.0001314082
  -0.0000339349    0.0000011396   -0.0000666616
   0.0023987798   -0.0013091400    0.0003673382
   0.0011589198    0.0006037730   -0.0000991862
   0.0000002252    0.0000013076    0.0000005983
   0.0000002252    0.0000013076    0.0000005983
   0.0000002252    0.0000013076    0.0000005983
   0.0000002252    0.0000013076    0.0000005983
  -0.0164850002   -0.0000024516   -0.0700849008
  -0.0000093512   -0.0000853247   -0.0000851307
   0.0001284678    0.0000795651   -0.0000396960
  -0.0000193109    0.0000057600   -0.0001305618
  -0.0000000002    0.0000000000   -0.0000000008
  -0.0000000002    0.0000000000   -0.0000000008
  -0.0000000002    0.0000000000   -0.0000000008
  -0.0000000002    0.0000000000   -0.0000000008
   0.0001119648    0.0000230792    0.0001819642
  -0.0056881502    0.0029761500    0.0068748892
  -0.0000930713   -0.0000253344   -0.0000312215
   0.0000847763   -0.0000178343    0.0001205212
  -0.0000006006    0.0000007093   -0.0000000008
  -0.0000006006    0.0000007093   -0.0000000008
  -0.0000006006    0.0000007093   -0.0000000008
  -0.0000006006    0.0000007093   -0.0000000008
   0.0000741584    0.0000327545    0.0000810169
   0.0001311018    0.0000271013   -0.0000407518
  -0.0001372682   -0.0000330235   -0.0000516585
  -0.0005450492   -0.0093821500    0.0114378992
   0.0000007185    0.0000060933   -0.0000000008
   0.0000007185    0.0000060933   -0.0000000008
   0.0000007185    0.0000060933   -0.0000000008
   0.0000007185    0.0000060933   -0.0000000008
   0.0106054998    0.0064446800    0.0160862992
   0.0001006158   -0.0000947604   -0.0001409268
  -0.0000231430    0.0000660714   -0.0000716358
   0.0000171911    0.0000446058   -0.0000806110
   0.0000017242    0.0000005299   -0.0000000008
   0.0000017242    0.0000005299   -0.0000000008
   0.0000017242    0.0000005299   -0.0000000008
   0.0000017242    0.0000005299   -0.0000000008
   0.0000016951   -0.0000705657    0.0000595440
   0.0001944958   -0.0000437059    0.0000831341
  -0.0000002256   -0.0000013076    0.0000005983
   0.0001213568    0.0001102960    0.0000713413
  -0.0000271380    0.0000654336    0.0000900059
   0.0000200074   -0.0000955203    0.0002268632
  -0.0000002256   -0.0000013076    0.0000005983
  -0.0001429592    0.0000259394    0.0001588442
  -0.0000002256   -0.0000013076   -0.0000006000
  -0.0000002256   -0.0000013076   -0.0000006000
  -0.0000002256   -0.0000013076   -0.0000006000
  -0.0000002256   -0.0000013076   -0.0000006000
   0.0011694098    0.0005985260   -0.0001055158
   0.0023304898   -0.0012793900    0.0003747762
  -0.0000343463   -0.0000011366   -0.0000667150
   0.0001234008    0.0006942920    0.0001374092
  -0.0000436172   -0.0000002108    0.0004672492
  -0.0000000002    0.0000000000   -0.0000000008
  -0.0000000002    0.0000000000   -0.0000000008
  -0.0000000002    0.0000000000   -0.0000000008
  -0.0000437377    0.0000002134    0.0004616252
  -0.0000000002    0.0000000000   -0.0000000008
  -0.0000000002    0.0000000000   -0.0000000008
  -0.0000000002    0.0000000000   -0.0000000008
   0.0000006002   -0.0000007092   -0.0000000008
   0.0000006002   -0.0000007092   -0.0000000008
   0.0000006002   -0.0000007092   -0.0000000008
   0.0000006002   -0.0000007092   -0.0000000008
   0.0000863183   -0.0000199579    0.0001204862
  -0.0000915233   -0.0000272138   -0.0000313109
  -0.0055495102    0.0029171900    0.0067815892
   0.0001132978    0.0000209928    0.0001798912
  -0.0000007189   -0.0000060933   -0.0000000008
  -0.0000007189   -0.0000060933   -0.0000000008
  -0.0000007189   -0.0000060933   -0.0000000008
  -0.0000007189   -0.0000060933   -0.0000000008
  -0.0004858852   -0.0090267800    0.0110346992
  -0.0001383522   -0.0000447625   -0.0000511234
   0.0001286388    0.0000156016   -0.0000391735
   0.0000733487    0.0000219057    0.0000807517
  -0.0000017246   -0.0000005299   -0.0000000008
  -0.0000017246   -0.0000005299   -0.0000000008
  -0.0000017246   -0.0000005299   -0.0000000008
  -0.0000017246   -0.0000005299   -0.0000000008
   0.0000134699    0.0000416884   -0.0000785660
  -0.0000267276    0.0000642647   -0.0000713932
   0.0000964351   -0.0000951827   -0.0001390768
   0.0100447998    0.0060737100    0.0152096992

25   
  0.0052377462228626   0.0000000000000000   0.0085185688061369
  -0.0000168683   -0.0000744023    0.0000406301
   0.0012816893    0.0022773005    0.0018096606
  -0.0003641027   -0.0007093805    0.0007445946
   0.0001034513   -0.0001184935   -0.0000908842
   0.0000002247    0.0000013081   -0.0000005986
   0.0000002247    0.0000013081   -0.0000005986
   0.0000002247    0.0000013081   -0.0000005986
   0.0000002247    0.0000013081   -0.0000005986
   0.0001247743   -0.0001569735    0.0000145365
  -0.0003522067   -0.0006536055    0.0006654336
   0.0013086593    0.0021118205    0.0016705006
  -0.0000654664   -0.0000220149   -0.0001931104
   0.0000002247    0.0000013081    0.0000005997
   0.0000002247    0.0000013081    0.0000005997
   0.0000002247    0.0000013081    0.0000005997
   0.0000002247    0.0000013081    0.0000005997
   0.0003642193   -0.0000365372    0.0000244134
  -0.0047524407    0.0024571005    0.0062897806
  -0.0000254747   -0.0000644202   -0.0000723336
   0.0002128633   -0.0001799485    0.0000417573
  -0.0000000007    0.0000000005    0.0000000006
  -0.0000000007    0.0000000005    0.0000000006
  -0.0000000007    0.0000000005    0.0000000006
  -0.0000000007    0.0000000005    0.0000000006
  -0.0362079007    0.0112718005   -0.0321752994
  -0.0000066462    0.0000007369    0.0004662306
   0.0002128643    0.0001274445    0.0004662226
  -0.0000566086    0.0000269333    0.0001486416
  -0.0000006011    0.0000007097    0.0000000006
  -0.0000006011    0.0000007097    0.0000000006
  -0.0000006011    0.0000007097    0.0000000006
  -0.0000006011    0.0000007097    0.0000000006
   0.0029147693   -0.0064820395   -0.0014294194
   0.0001080083    0.0000119815    0.0001187566
   0.0019454593   -0.0043692295   -0.0004517044
   0.0001070253    0.0000131894    0.0001186296
   0.0000007180    0.0000060938    0.0000000006
   0.0000007180    0.0000060938    0.0000000006
   0.0000007180    0.0000060938    0.0000000006
   0.0000007180    0.0000060938    0.0000000006
   0.0135494993    0.0002574915   -0.0014073494
   0.0091986393    0.0002499575   -0.0004679434
  -0.0000418207    0.0000805012    0.0001187656
  -0.0000412465    0.0000806918    0.0001187206
   0.0000017237    0.0000005304    0.0000000006
   0.0000017237    0.0000005304    0.0000000006
   0.0000017237    0.0000005304    0.0000000006
   0.0000017237    0.0000005304    0.0000000006
  -0.0008741267    0.0005760435    0.0025102106
   0.0002501263   -0.0000141855    0.0000043447
   0.0001009493   -0.0001988805   -0.0000932634
  -0.0000311121   -0.0000086516   -0.0000341262
  -0.0000143936    0.0000119171   -0.0000544954
  -0.0000002261   -0.0000013071    0.0000005997
  -0.0000002261   -0.0000013071    0.0000005997
  -0.0000002261   -0.0000013071    0.0000005997
  -0.0000115164    0.0000104302   -0.0000221332
  -0.0000002261   -0.0000013071   -0.0000005986
  -0.0000002261   -0.0000013071   -0.0000005986
  -0.0000002261   -0.0000013071   -0.0000005986
   0.0018088293   -0.0009896895    0.0044284406
  -0.0001416077   -0.0000848356   -0.0002029174
  -0.0000321196    0.0001749845   -0.0001066014
  -0.0000234091   -0.0000126026    0.0000036355
  -0.0001542447    0.0000379329    0.0000161612
   0.0097946593   -0.0059769795    0.0165840006
  -0.0000915891   -0.0000270781   -0.0000304916
  -0.0001118467    0.0002337215   -0.0000007247
  -0.0000000007    0.0000000005    0.0000000006
  -0.0000000007    0.0000000005    0.0000000006
  -0.0000000007    0.0000000005    0.0000000006
  -0.0000000007    0.0000000005    0.0000000006
   0.0000005997   -0.0000007087    0.0000000006
  -0.0000166691    0.0000362850   -0.0000310570
  -0.0000504906    0.0000353907   -0.0000208397
   0.0000090836    0.0000771066    0.0000168165
   0.0000005997   -0.0000007087    0.0000000006
   0.0000593632    0.0000288304    0.0000159018
  -0.0000062173   -0.0000275384    0.0000055512
   0.0002013753   -0.0000348339    0.0001356016
   0.0000515829   -0.0000253535   -0.0000733869
   0.0001535863   -0.0000619726    0.0002336156
  -0.0000298510   -0.0000042454   -0.0000596256
  -0.0000007194   -0.0000060928    0.0000000006
  -0.0001482847   -0.0000013822   -0.0000948653
  -0.0000480169    0.0001036955    0.0002576916
   0.0000054246   -0.0000647502   -0.0001086364
  -0.0000007194   -0.0000060928    0.0000000006
   0.0000426726   -0.0000501489   -0.0000626481
  -0.0000533324   -0.0000113634   -0.0001217624
   0.0000802879   -0.0000198647    0.0001707526
  -0.0000017251   -0.0000005294    0.0000000006
  -0.0000782245    0.0001111525   -0.0001055784
   0.0000173501   -0.0000113620   -0.0000473110
  -0.0001634867    0.0000710243    0.0003184876
  -0.0000017251   -0.0000005294    0.0000000006

25   
 -0.0052377462228626   0.0000000000000000  -0.0085185688061369
   0.0000187795    0.0000773404   -0.0000428505
  -0.0012647292   -0.0021913099   -0.0017529004
   0.0003541608    0.0007153631   -0.0007448864
  -0.0001005652    0.0001202751    0.0000886673
   0.0000002262    0.0000013077   -0.0000005995
   0.0000002262    0.0000013077   -0.0000005995
   0.0000002262    0.0000013077   -0.0000005995
   0.0000002262    0.0000013077   -0.0000005995
  -0.0001271852    0.0001608031   -0.0000130545
   0.0003380688    0.0006545581   -0.0006766634
  -0.0013574392   -0.0021546899   -0.0017452604
   0.0000656771    0.0000232550    0.0001960456
   0.0000002262    0.0000013077    0.0000005988
   0.0000002262    0.0000013077    0.0000005988
   0.0000002262    0.0000013077    0.0000005988
   0.0000002262    0.0000013077    0.0000005988
  -0.0003688652    0.0000362220   -0.0000251888
   0.0048787308   -0.0025087799   -0.0063790104
   0.0000263131    0.0000647916    0.0000718572
  -0.0002134192    0.0001815621   -0.0000423456
   0.0000000008    0.0000000001   -0.0000000004
   0.0000000008    0.0000000001   -0.0000000004
   0.0000000008    0.0000000001   -0.0000000004
   0.0000000008    0.0000000001   -0.0000000004
   0.0357691008   -0.0109442999    0.0315233996
   0.0000054965    0.0000006840   -0.0004662354
  -0.0002140342   -0.0001260899   -0.0004662304
   0.0000554342   -0.0000256267   -0.0001484514
  -0.0000005996    0.0000007093   -0.0000000004
  -0.0000005996    0.0000007093   -0.0000000004
  -0.0000005996    0.0000007093   -0.0000000004
  -0.0000005996    0.0000007093   -0.0000000004
  -0.0028943092    0.0065118201    0.0014792296
  -0.0001066412   -0.0000000763   -0.0001186234
  -0.0019489492    0.0043610301    0.0004196126
  -0.0001052542   -0.0000002166   -0.0001187664
   0.0000007196    0.0000060934   -0.0000000004
   0.0000007196    0.0000060934   -0.0000000004
   0.0000007196    0.0000060934   -0.0000000004
   0.0000007196    0.0000060934   -0.0000000004
  -0.0138760992   -0.0002575059    0.0015024596
  -0.0089548892   -0.0002491389    0.0004042116
   0.0000445889   -0.0000785281   -0.0001186154
   0.0000451520   -0.0000810567   -0.0001186824
   0.0000017252    0.0000005300   -0.0000000004
   0.0000017252    0.0000005300   -0.0000000004
   0.0000017252    0.0000005300   -0.0000000004
   0.0000017252    0.0000005300   -0.0000000004
   0.0008510278   -0.0005510699   -0.0024615604
  -0.0002475062    0.0000111863   -0.0000020197
  -0.0001013792    0.0001950411    0.0000935496
   0.0000303793    0.0000057070    0.0000362289
   0.0000140004   -0.0000148759    0.0000562141
  -0.0000002245   -0.0000013075    0.0000005988
  -0.0000002245   -0.0000013075    0.0000005988
  -0.0000002245   -0.0000013075    0.0000005988
   0.0000104688   -0.0000126492    0.0000210205
  -0.0000002245   -0.0000013075   -0.0000005995
  -0.0000002245   -0.0000013075   -0.0000005995
  -0.0000002245   -0.0000013075   -0.0000005995
  -0.0018899992    0.0010141601   -0.0046371704
   0.0001397308    0.0000832067    0.0002010766
   0.0000314711   -0.0001770219    0.0001042196
   0.0000233141    0.0000102879   -0.0000055065
   0.0001565528   -0.0000381053   -0.0000160830
  -0.0092491292    0.0056138601   -0.0156996004
   0.0000910986    0.0000265713    0.0000308656
   0.0001126668   -0.0002344099    0.0000015326
   0.0000000008    0.0000000001   -0.0000000004
   0.0000000008    0.0000000001   -0.0000000004
   0.0000000008    0.0000000001   -0.0000000004
   0.0000000008    0.0000000001   -0.0000000004
   0.0000006013   -0.0000007092   -0.0000000004
   0.0000177193   -0.0000365584    0.0000310872
   0.0000507912   -0.0000365776    0.0000211834
  -0.0000079684   -0.0000772067   -0.0000169048
   0.0000006013   -0.0000007092   -0.0000000004
  -0.0000595601   -0.0000309787   -0.0000162377
   0.0000071393    0.0000267653   -0.0000064487
  -0.0002020842    0.0000339533   -0.0001357014
  -0.0000532692    0.0000128909    0.0000736090
  -0.0001529452    0.0000480630   -0.0002311464
   0.0000278527   -0.0000086983    0.0000601311
  -0.0000007179   -0.0000060932   -0.0000000004
   0.0001481238   -0.0000111076    0.0000954928
   0.0000472709   -0.0001164739   -0.0002593484
  -0.0000071498    0.0000528068    0.0001089476
  -0.0000007179   -0.0000060932   -0.0000000004
  -0.0000457920    0.0000492695    0.0000627503
   0.0000496875    0.0000108950    0.0001213586
  -0.0000819642    0.0000187860   -0.0001704774
  -0.0000017236   -0.0000005298   -0.0000000004
   0.0000754726   -0.0001129429    0.0001063726
  -0.0000204253    0.0000107592    0.0000469153
   0.0001611108   -0.0000732007   -0.0003220564
  -0.0000017236   -0.0000005298   -0.0000000004
