  12   96
1 1
     2.867825629921404     0.000000000000000     0.000000000000000
     0.000000000000000     2.867825629921404     0.000000000000000
     0.000000000000000     0.000000000000000     2.967887184890593
1 2
    -0.007093301747338     0.000000001069328     0.000000000000000
     0.000000001069328     0.032369158842531     0.020347329300216
     0.000000000000000     0.020347329300216     0.047279874135854
1 3
     0.022503544621129     0.017087746148670    -0.017621304348833
     0.017087746148670     0.002772312474064    -0.010173664172617
    -0.017621304348833    -0.010173664172617     0.047279874135854
1 4
     0.022503542768999    -0.017087747217998     0.017621303797475
    -0.017087747217998     0.002772314326195    -0.010173665127598
     0.017621303797475    -0.010173665127598     0.047279874135854
1 5
    -0.000001372546570     0.000000000000000     0.000000000000000
     0.000000000000000    -0.000001372546570     0.000000000000000
     0.000000000000000     0.000000000000000     0.000000134217673
1 6
    -0.000001372546571     0.000000000000000     0.000000000000000
     0.000000000000000    -0.000001372546570    -0.000000000000005
     0.000000000000000    -0.000000000000005     0.000000134217672
1 7
    -0.000001372546570     0.000000000000000     0.000000000000005
     0.000000000000000    -0.000001372546571     0.000000000000003
     0.000000000000005     0.000000000000003     0.000000134217672
1 8
    -0.000001372546570    -0.000000000000000    -0.000000000000005
    -0.000000000000000    -0.000001372546571     0.000000000000003
    -0.000000000000005     0.000000000000003     0.000000134217672
1 9
     0.011820926084415     0.000000000000000     0.000000000000000
     0.000000000000000     0.011820926084415     0.000000000000000
     0.000000000000000     0.000000000000000    -0.674779876464280
1 10
    -0.047623791451888     0.000000000215531     0.000000000000000
     0.000000000215531    -0.039669850734463    -0.000821427381539
     0.000000000000000     0.000821427381539    -0.042643623394581
1 11
    -0.041658335727164     0.003444157252977     0.000711376990906
     0.003444157252977    -0.045635306459187     0.000410713671493
    -0.000711376990906    -0.000410713671493    -0.042643623394580
1 12
    -0.041658336100474    -0.003444157468508    -0.000711376968647
    -0.003444157468508    -0.045635306085877     0.000410713710046
     0.000711376968647    -0.000410713710046    -0.042643623394581
1 13
     0.026535718806442     0.000000000000000     0.000000000000000
     0.000000000000000     0.026535718806442     0.000000000000000
     0.000000000000000     0.000000000000000     0.015182796111161
1 14
    -0.000001372546571     0.000000000000000     0.000000000000000
     0.000000000000000    -0.000001372546570     0.000000000000007
     0.000000000000000    -0.000000000000007     0.000000134217672
1 15
    -0.000001372546570     0.000000000000000    -0.000000000000006
     0.000000000000000    -0.000001372546571    -0.000000000000003
     0.000000000000006     0.000000000000003     0.000000134217672
1 16
    -0.000001372546570    -0.000000000000000     0.000000000000006
    -0.000000000000000    -0.000001372546571    -0.000000000000003
    -0.000000000000006     0.000000000000003     0.000000134217672
1 17
     0.027383205008848    -0.000000000968412     0.000000000000000
    -0.000000000968412    -0.008355047233578    -0.003193512347849
     0.000000000000000    -0.015295549785123    -0.018606849399705
1 18
    -0.000000391745650    -0.000000000000000     0.000000000000000
    -0.000000000000000    -0.000000391745650     0.000000000000000
     0.000000000000000     0.000000000000000     0.000001745038110
1 19
     0.000579516665698     0.015475117648605    -0.002765662777269
     0.015475117648605     0.018448641109572     0.001596756248867
    -0.013246334471532     0.007647775251502    -0.018606849399705
1 20
     0.000579514988359    -0.015475116680193     0.002765662863805
    -0.015475116680193     0.018448642786911     0.001596756098983
     0.013246334886001     0.007647774533621    -0.018606849399705
1 21
    -0.023098010790228     0.000000000158563     0.000000000000000
     0.000000000158563    -0.017246422854547    -0.013026985900803
     0.000000000000000    -0.002670796150361    -0.008319718381143
1 22
    -0.000000391745651    -0.000000000000000     0.000000000000000
    -0.000000000000000    -0.000000391745651     0.000000000000000
     0.000000000000000     0.000000000000000     0.000001745038110
1 23
    -0.018709319975786    -0.002533811981670    -0.011281700548339
    -0.002533811981670    -0.021635113668988     0.006513493256106
    -0.002312977278357     0.001335398137856    -0.008319718381143
1 24
    -0.018709319701148     0.002533811823108     0.011281700901336
     0.002533811823108    -0.021635113943627     0.006513492644697
     0.002312977350728     0.001335398012505    -0.008319718381143
1 25
    -0.010324897385650     0.022410536942741     0.008439935566884
     0.022410536942741     0.015552558448748    -0.004872799376417
    -0.002668061826659     0.001540406310233    -0.003261159494051
1 26
    -0.088623341330912    -0.133169535544838    -0.094983157442320
    -0.150891367083777    -0.258442495747917    -0.169534332851653
    -0.105958373368464    -0.167277104788086    -0.143949476692738
1 27
    -0.092985743862095    -0.153410001044243     0.099329469393887
    -0.135688169505305    -0.254080093216734     0.167024988319402
     0.091887045039577     0.175401190495019    -0.143949476692738
1 28
    -0.003478166255541     0.013556327769685    -0.009836100393232
     0.013556327769685     0.012175330759410     0.005678875565185
    -0.010004634278818     0.005776178655485     0.016689628398692
1 29
     0.000000069862099    -0.000001220284700    -0.000000000000004
    -0.000001220284700    -0.000001339201124     0.000000000000002
    -0.000000001234111     0.000000000712514    -0.000000639991837
1 30
     0.000000069862099    -0.000001220284699     0.000000000000000
    -0.000001220284700    -0.000001339201124     0.000000000000000
    -0.000000001234103     0.000000000712510    -0.000000639991836
1 31
     0.000000069862099    -0.000001220284700     0.000000000000000
    -0.000001220284700    -0.000001339201124    -0.000000000000000
    -0.000000001234103     0.000000000712510    -0.000000639991836
1 32
     0.000000069862099    -0.000001220284699    -0.000000000000004
    -0.000001220284699    -0.000001339201123     0.000000000000002
    -0.000000001234111     0.000000000712514    -0.000000639991837
1 33
    -0.338989686092826     0.006342290539463     0.194312617784338
    -0.011379540999475    -0.008076150986003     0.002509339149120
     0.197845408902226    -0.008124090686724    -0.143949476692738
1 34
    -0.338989685819833    -0.006342272605704    -0.194312617648345
     0.011379558933234    -0.008076151258996     0.002509349679834
    -0.197845409342508    -0.008124079964551    -0.143949476692738
1 35
     0.028491288795012    -0.000000001402421     0.000000000000000
    -0.000000001402421    -0.023263627731914     0.009745598295434
     0.000000000000000    -0.003080812475870    -0.003261159494051
1 36
     0.020002080736248    -0.000000000848337     0.000000000000000
    -0.000000000848337    -0.011304916232379    -0.011357750597306
     0.000000000000000    -0.011552356768771     0.016689628398692
1 37
    -0.000002043732868     0.000000000000076    -0.000000000000000
     0.000000000000076     0.000000774393843     0.000000000000000
    -0.000000000000000    -0.000000001425019    -0.000000639991836
1 38
    -0.000002043732868     0.000000000000076     0.000000000000000
     0.000000000000077     0.000000774393843     0.000000000000000
     0.000000000000000    -0.000000001425019    -0.000000639991836
1 39
    -0.000002043732868     0.000000000000076     0.000000000000000
     0.000000000000076     0.000000774393843    -0.000000000000004
     0.000000000000000    -0.000000001425028    -0.000000639991837
1 40
    -0.000002043732867     0.000000000000076     0.000000000000000
     0.000000000000076     0.000000774393842    -0.000000000000004
     0.000000000000000    -0.000000001425028    -0.000000639991837
1 41
    -0.088623325936316     0.133169526341540     0.094983148254457
     0.150891357880478    -0.258442511142513    -0.169534337999236
     0.105958364302931    -0.167277110530468    -0.143949476692738
1 42
    -0.010324899814714    -0.022410535540320    -0.008439935830964
    -0.022410535540320     0.015552560877813    -0.004872798919017
     0.002668061910141     0.001540406165638    -0.003261159494051
1 43
    -0.092985728194506     0.153409992313783    -0.099329460342018
     0.135688160774845    -0.254080108884324     0.167024993702533
    -0.091887035533762     0.175401195474810    -0.143949476692738
1 44
    -0.003478167724904    -0.013556326921348     0.009836100700997
    -0.013556326921348     0.012175332228772     0.005678875032121
     0.010004634591856     0.005776178113287     0.016689628398692
1 45
     0.000000069862232     0.000001220284623    -0.000000000000000
     0.000001220284623    -0.000001339201256     0.000000000000000
     0.000000001234103     0.000000000712510    -0.000000639991836
1 46
     0.000000069862232     0.000001220284623     0.000000000000004
     0.000001220284623    -0.000001339201256     0.000000000000002
     0.000000001234111     0.000000000712514    -0.000000639991837
1 47
     0.000000069862231     0.000001220284624    -0.000000000000000
     0.000001220284623    -0.000001339201256    -0.000000000000000
     0.000000001234103     0.000000000712510    -0.000000639991836
1 48
     0.000000069862231     0.000001220284622     0.000000000000004
     0.000001220284622    -0.000001339201256     0.000000000000002
     0.000000001234111     0.000000000712514    -0.000000639991837
1 49
    -0.451833667686010     0.267933635116972    -0.190689682400600
     0.267933635116972    -0.142450593688088     0.110094746355251
    -0.190689682400600     0.110094746355251    -0.059998163467681
1 50
    -0.451833696727178    -0.267933618350047     0.190689688367152
    -0.267933618350047    -0.142450564646920     0.110094736020880
     0.190689688367152     0.110094736020880    -0.059998163467681
1 51
     0.012240972352041    -0.000000016766924     0.000000000000000
    -0.000000016766924    -0.606525233726139    -0.220189482376132
     0.000000000000000    -0.220189482376132    -0.059998163467681
1 52
    -0.066921271886107     0.000000000000000     0.000000000000000
    -0.000000000000000    -0.066921271886107     0.000000000000000
     0.000000000000000     0.000000000000000    -0.059574656049255
1 53
    -0.000001363000479     0.000000000000000    -0.000000000000005
     0.000000000000000    -0.000001363000479     0.000000000000003
    -0.000000000000005     0.000000000000003     0.000000134217672
1 54
    -0.000001363000479    -0.000000000000000     0.000000000000005
    -0.000000000000000    -0.000001363000479     0.000000000000003
     0.000000000000005     0.000000000000003     0.000000134217672
1 55
    -0.000001363000479    -0.000000000000000     0.000000000000000
    -0.000000000000000    -0.000001363000480    -0.000000000000005
     0.000000000000000    -0.000000000000005     0.000000134217672
1 56
    -0.000001363000479     0.000000000000000     0.000000000000000
    -0.000000000000000    -0.000001363000479     0.000000000000000
     0.000000000000000     0.000000000000000     0.000000134217672
1 57
     0.011731112491219     0.010824808646777    -0.006275580451822
     0.010824808646777     0.024230523299113     0.003623208289916
    -0.004812441004074     0.002778464283034     0.001331407332298
1 58
     0.011731111317925    -0.010824807969376     0.006275580648181
    -0.010824807969376     0.024230524472407     0.003623207949813
     0.004812441154652     0.002778464022225     0.001331407332298
1 59
     0.030480229876354    -0.000000000677402     0.000000000000000
    -0.000000000677402     0.005481405913978    -0.007246416239729
     0.000000000000000    -0.005556928305259     0.001331407332298
1 60
    -0.000001363000479    -0.000000000000000     0.000000000000000
    -0.000000000000000    -0.000001363000479     0.000000000000000
     0.000000000000000     0.000000000000000     0.000000134217672
1 61
     0.011731112491219     0.010824808646777     0.004812441004074
     0.010824808646777     0.024230523299113    -0.002778464283034
     0.006275580451822    -0.003623208289916     0.001331407332298
1 62
     0.011731111317925    -0.010824807969376    -0.004812441154652
    -0.010824807969376     0.024230524472407    -0.002778464022225
    -0.006275580648181    -0.003623207949813     0.001331407332298
1 63
     0.030480229876354    -0.000000000677402     0.000000000000000
    -0.000000000677402     0.005481405913978     0.005556928305259
     0.000000000000000     0.007246416239729     0.001331407332298
1 64
    -0.000001363000479    -0.000000000000000     0.000000000000000
    -0.000000000000000    -0.000001363000479     0.000000000000000
     0.000000000000000     0.000000000000000     0.000000134217672
1 65
    -0.023444964968633    -0.000000011323729     0.000000000000000
    -0.000000011323729    -0.441335591856851     0.081354712031644
     0.000000000000000     0.052189755908536    -0.015770083622434
1 66
     0.006521177560419     0.000000000000000     0.000000000000000
     0.000000000000000     0.006521177560419     0.000000000000000
     0.000000000000000     0.000000000000000     0.007830017194808
1 67
    -0.336862925328160     0.180951955106164     0.070455246234722
     0.180951955106164    -0.127917631497325    -0.040677357924972
     0.045197653726999    -0.026094879179005    -0.015770083622434
1 68
    -0.336862944941435    -0.180951943782436    -0.070455248439219
    -0.180951943782436    -0.127917611884050    -0.040677354106671
    -0.045197655141203    -0.026094876729531    -0.015770083622434
1 69
    -0.000000391745650    -0.000000000000000     0.000000000000000
    -0.000000000000000    -0.000000391745651     0.000000000000010
     0.000000000000000    -0.000000000000009     0.000001745038110
1 70
    -0.000000391745650    -0.000000000000000     0.000000000000000
    -0.000000000000000    -0.000000391745650     0.000000000000000
     0.000000000000000     0.000000000000000     0.000001745038111
1 71
    -0.000000391745651     0.000000000000000     0.000000000000009
     0.000000000000000    -0.000000391745650    -0.000000000000005
    -0.000000000000008     0.000000000000005     0.000001745038110
1 72
    -0.000000391745651    -0.000000000000000    -0.000000000000009
    -0.000000000000000    -0.000000391745650    -0.000000000000005
     0.000000000000008     0.000000000000005     0.000001745038110
1 73
    -0.094188274695052     0.041895284962045     0.159192109536666
     0.041895284962045    -0.045811772648499    -0.091909613045438
     0.195348804118308    -0.112784691701490    -0.411968201051381
1 74
    -0.010324646399010    -0.000136878494675    -0.022860839138741
     0.009230652163382    -0.000140296184913    -0.004187030721864
    -0.019586697121412    -0.009983162245329     0.011669237573557
1 75
    -0.006624102520711     0.011367161900266    -0.007804343411403
     0.001999631242209    -0.003840840063212     0.021891583229865
    -0.001147675256351     0.021954158468237     0.011669237573557
1 76
     0.005166485999935     0.001778017394056     0.000432842978622
     0.001778017394056     0.007219563385141    -0.000249902025863
     0.003793788864643    -0.002190345159319     0.001797366265172
1 77
     0.002404682028702    -0.002380578971395     0.000188117252191
    -0.002380578971395    -0.000344173447182    -0.000108609552988
     0.003225564375793    -0.001862280577191     0.004517179947405
1 78
     0.000000074416762    -0.000001222410004    -0.000000000000000
    -0.000001222410004    -0.000001337100551    -0.000000000000000
     0.000000000712510    -0.000000000411368    -0.000000639991836
1 79
     0.000000074416762    -0.000001222410004     0.000000000000000
    -0.000001222410004    -0.000001337100551     0.000000000000000
     0.000000000712510    -0.000000000411368    -0.000000639991836
1 80
     0.000000074416763    -0.000001222410004    -0.000000000000003
    -0.000001222410004    -0.000001337100550     0.000000000000002
     0.000000000712502    -0.000000000411363    -0.000000639991837
1 81
    -0.021623517084218    -0.000000002621750     0.000000000000000
    -0.000000002621750    -0.118376530259333     0.183819217463507
     0.000000000000000     0.225569372816110    -0.411968201051382
1 82
     0.008246102270463    -0.000000000111266     0.000000000000000
    -0.000000000111266     0.004139947114613     0.000499804028267
     0.000000000000000     0.004380690113034     0.001797366265172
1 83
     0.001251335768246    -0.002547255742982     0.015056494540930
     0.006820274915075    -0.011716278352169    -0.017704552085047
     0.018439020675263    -0.011970996160710     0.011669237573557
1 84
     0.001251335536671     0.002547255040206    -0.015056495500423
    -0.006820275617851    -0.011716278120594    -0.017704551269065
    -0.018439021324027    -0.011970995161413     0.011669237573557
1 85
    -0.001718601443154     0.000000000148973     0.000000000000000
     0.000000000148973     0.003779110024674     0.000217219095782
     0.000000000000000     0.003724560979574     0.004517179947405
1 86
    -0.000002042859340     0.000000000000076     0.000000000000000
     0.000000000000076     0.000000780175552    -0.000000000000004
     0.000000000000000     0.000000000822726    -0.000000639991837
1 87
    -0.000002042859340     0.000000000000077     0.000000000000000
     0.000000000000076     0.000000780175551     0.000000000000000
     0.000000000000000     0.000000000822735    -0.000000639991836
1 88
    -0.000002042859340     0.000000000000076    -0.000000000000000
     0.000000000000077     0.000000780175551     0.000000000000000
     0.000000000000000     0.000000000822735    -0.000000639991836
1 89
    -0.094188279236057    -0.041895282340295    -0.159192114517680
    -0.041895282340295    -0.045811768107494    -0.091909604418069
    -0.195348810230641    -0.112784681114620    -0.411968201051381
1 90
    -0.010324646891845     0.000136879046613     0.022860838911826
    -0.009230651611444    -0.000140295692078    -0.004187031960800
     0.019586696580378    -0.009983163306824     0.011669237573557
1 91
     0.005166485807216    -0.001778017282790    -0.000432842992165
    -0.001778017282790     0.007219563577860    -0.000249902002405
    -0.003793788983348    -0.002190344953716     0.001797366265172
1 92
    -0.006624103245120    -0.011367161749428     0.007804344597811
    -0.001999631091371    -0.003840839338803     0.021891582806911
     0.001147676446150     0.021954158406039     0.011669237573557
1 93
     0.002404682286732     0.002380578822421    -0.000188117258077
     0.002380578822421    -0.000344173705212    -0.000108609542793
    -0.003225564476718    -0.001862280402383     0.004517179947405
1 94
     0.000000074416895     0.000001222409927     0.000000000000000
     0.000001222409928    -0.000001337100683    -0.000000000000000
    -0.000000000712510    -0.000000000411368    -0.000000639991836
1 95
     0.000000074416895     0.000001222409928     0.000000000000003
     0.000001222409928    -0.000001337100683     0.000000000000002
    -0.000000000712502    -0.000000000411363    -0.000000639991837
1 96
     0.000000074416895     0.000001222409928    -0.000000000000000
     0.000001222409927    -0.000001337100683     0.000000000000000
    -0.000000000712510    -0.000000000411368    -0.000000639991836
9 1
     0.011820926084415     0.000000000000000     0.000000000000000
     0.000000000000000     0.011820926084415     0.000000000000000
     0.000000000000000     0.000000000000000    -0.674779876464280
9 2
    -0.047623791451888     0.000000000215531     0.000000000000000
     0.000000000215531    -0.039669850734463     0.000821427381539
     0.000000000000000    -0.000821427381539    -0.042643623394581
9 3
    -0.041658335727164     0.003444157252977    -0.000711376990906
     0.003444157252977    -0.045635306459187    -0.000410713671493
     0.000711376990906     0.000410713671493    -0.042643623394580
9 4
    -0.041658336100474    -0.003444157468508     0.000711376968647
    -0.003444157468508    -0.045635306085877    -0.000410713710046
    -0.000711376968647     0.000410713710046    -0.042643623394581
9 5
     0.026535718806442     0.000000000000000     0.000000000000000
     0.000000000000000     0.026535718806442     0.000000000000000
     0.000000000000000     0.000000000000000     0.015182796111161
9 6
    -0.000001372546571     0.000000000000000     0.000000000000000
     0.000000000000000    -0.000001372546570    -0.000000000000007
     0.000000000000000     0.000000000000007     0.000000134217672
9 7
    -0.000001372546570     0.000000000000000     0.000000000000006
     0.000000000000000    -0.000001372546571     0.000000000000003
    -0.000000000000006    -0.000000000000003     0.000000134217672
9 8
    -0.000001372546570    -0.000000000000000    -0.000000000000006
    -0.000000000000000    -0.000001372546571     0.000000000000003
     0.000000000000006    -0.000000000000003     0.000000134217672
9 9
     2.867825629921404     0.000000000000000     0.000000000000000
     0.000000000000000     2.867825629921404     0.000000000000000
     0.000000000000000     0.000000000000000     2.967887184890593
9 10
    -0.007093301747338     0.000000001069328     0.000000000000000
     0.000000001069328     0.032369158842531    -0.020347329300216
     0.000000000000000    -0.020347329300216     0.047279874135854
9 11
     0.022503544621129     0.017087746148670     0.017621304348833
     0.017087746148670     0.002772312474064     0.010173664172617
     0.017621304348833     0.010173664172617     0.047279874135854
9 12
     0.022503542768999    -0.017087747217998    -0.017621303797475
    -0.017087747217998     0.002772314326195     0.010173665127598
    -0.017621303797475     0.010173665127598     0.047279874135854
9 13
    -0.000001372546570    -0.000000000000000     0.000000000000000
    -0.000000000000000    -0.000001372546570     0.000000000000000
     0.000000000000000     0.000000000000000     0.000000134217673
9 14
    -0.000001372546571    -0.000000000000000     0.000000000000000
    -0.000000000000000    -0.000001372546570     0.000000000000005
     0.000000000000000     0.000000000000005     0.000000134217672
9 15
    -0.000001372546570     0.000000000000000    -0.000000000000005
     0.000000000000000    -0.000001372546571    -0.000000000000003
    -0.000000000000005    -0.000000000000003     0.000000134217672
9 16
    -0.000001372546570    -0.000000000000000     0.000000000000005
    -0.000000000000000    -0.000001372546571    -0.000000000000003
     0.000000000000005    -0.000000000000003     0.000000134217672
9 17
    -0.023444964968633    -0.000000011323729     0.000000000000000
    -0.000000011323729    -0.441335591856852    -0.081354712031644
     0.000000000000000    -0.052189755908536    -0.015770083622434
9 18
     0.006521177560419     0.000000000000000     0.000000000000000
     0.000000000000000     0.006521177560419     0.000000000000000
     0.000000000000000     0.000000000000000     0.007830017194808
9 19
    -0.336862925328160     0.180951955106164    -0.070455246234722
     0.180951955106164    -0.127917631497325     0.040677357924972
    -0.045197653726999     0.026094879179005    -0.015770083622434
9 20
    -0.336862944941435    -0.180951943782436     0.070455248439219
    -0.180951943782436    -0.127917611884050     0.040677354106671
     0.045197655141203     0.026094876729531    -0.015770083622434
9 21
    -0.000000391745650    -0.000000000000000     0.000000000000000
    -0.000000000000000    -0.000000391745651    -0.000000000000010
     0.000000000000000     0.000000000000009     0.000001745038110
9 22
    -0.000000391745650    -0.000000000000000     0.000000000000000
    -0.000000000000000    -0.000000391745650     0.000000000000000
     0.000000000000000     0.000000000000000     0.000001745038111
9 23
    -0.000000391745651     0.000000000000000    -0.000000000000009
     0.000000000000000    -0.000000391745650     0.000000000000005
     0.000000000000008    -0.000000000000005     0.000001745038110
9 24
    -0.000000391745651    -0.000000000000000     0.000000000000009
    -0.000000000000000    -0.000000391745650     0.000000000000005
    -0.000000000000008    -0.000000000000005     0.000001745038110
9 25
    -0.010324897385650     0.022410536942741    -0.008439935566884
     0.022410536942741     0.015552558448748     0.004872799376417
     0.002668061826659    -0.001540406310233    -0.003261159494051
9 26
    -0.088623341330912    -0.133169535544839     0.094983157442320
    -0.150891367083777    -0.258442495747917     0.169534332851653
     0.105958373368464     0.167277104788086    -0.143949476692738
9 27
    -0.092985743862095    -0.153410001044243    -0.099329469393887
    -0.135688169505305    -0.254080093216734    -0.167024988319402
    -0.091887045039577    -0.175401190495019    -0.143949476692738
9 28
    -0.003478166255541     0.013556327769685     0.009836100393232
     0.013556327769685     0.012175330759410    -0.005678875565185
     0.010004634278818    -0.005776178655485     0.016689628398692
9 29
     0.000000069862099    -0.000001220284700     0.000000000000004
    -0.000001220284700    -0.000001339201124    -0.000000000000002
     0.000000001234111    -0.000000000712514    -0.000000639991837
9 30
     0.000000069862099    -0.000001220284699    -0.000000000000000
    -0.000001220284700    -0.000001339201124    -0.000000000000000
     0.000000001234103    -0.000000000712510    -0.000000639991836
9 31
     0.000000069862099    -0.000001220284700    -0.000000000000000
    -0.000001220284700    -0.000001339201124     0.000000000000000
     0.000000001234103    -0.000000000712510    -0.000000639991836
9 32
     0.000000069862099    -0.000001220284699     0.000000000000004
    -0.000001220284699    -0.000001339201123    -0.000000000000002
     0.000000001234111    -0.000000000712514    -0.000000639991837
9 33
    -0.338989686092826     0.006342290539463    -0.194312617784338
    -0.011379540999475    -0.008076150986003    -0.002509339149120
    -0.197845408902226     0.008124090686724    -0.143949476692738
9 34
    -0.338989685819833    -0.006342272605704     0.194312617648345
     0.011379558933234    -0.008076151258996    -0.002509349679835
     0.197845409342508     0.008124079964551    -0.143949476692738
9 35
     0.028491288795012    -0.000000001402421     0.000000000000000
    -0.000000001402421    -0.023263627731914    -0.009745598295434
     0.000000000000000     0.003080812475870    -0.003261159494051
9 36
     0.020002080736248    -0.000000000848337     0.000000000000000
    -0.000000000848337    -0.011304916232379     0.011357750597306
     0.000000000000000     0.011552356768771     0.016689628398692
9 37
    -0.000002043732868     0.000000000000076     0.000000000000000
     0.000000000000076     0.000000774393843    -0.000000000000000
     0.000000000000000     0.000000001425019    -0.000000639991836
9 38
    -0.000002043732868     0.000000000000076    -0.000000000000000
     0.000000000000077     0.000000774393843    -0.000000000000000
    -0.000000000000000     0.000000001425019    -0.000000639991836
9 39
    -0.000002043732868     0.000000000000076     0.000000000000000
     0.000000000000076     0.000000774393843     0.000000000000004
     0.000000000000000     0.000000001425028    -0.000000639991837
9 40
    -0.000002043732867     0.000000000000076     0.000000000000000
     0.000000000000076     0.000000774393842     0.000000000000004
     0.000000000000000     0.000000001425028    -0.000000639991837
9 41
    -0.088623325936316     0.133169526341540    -0.094983148254457
     0.150891357880478    -0.258442511142513     0.169534337999236
    -0.105958364302931     0.167277110530468    -0.143949476692738
9 42
    -0.010324899814714    -0.022410535540320     0.008439935830964
    -0.022410535540320     0.015552560877813     0.004872798919017
    -0.002668061910141    -0.001540406165638    -0.003261159494051
9 43
    -0.092985728194506     0.153409992313783     0.099329460342018
     0.135688160774844    -0.254080108884324    -0.167024993702533
     0.091887035533762    -0.175401195474810    -0.143949476692738
9 44
    -0.003478167724904    -0.013556326921348    -0.009836100700997
    -0.013556326921348     0.012175332228772    -0.005678875032121
    -0.010004634591856    -0.005776178113287     0.016689628398692
9 45
     0.000000069862232     0.000001220284623     0.000000000000000
     0.000001220284623    -0.000001339201256    -0.000000000000000
    -0.000000001234103    -0.000000000712510    -0.000000639991836
9 46
     0.000000069862232     0.000001220284623    -0.000000000000004
     0.000001220284623    -0.000001339201256    -0.000000000000002
    -0.000000001234111    -0.000000000712514    -0.000000639991837
9 47
     0.000000069862231     0.000001220284624     0.000000000000000
     0.000001220284623    -0.000001339201256     0.000000000000000
    -0.000000001234103    -0.000000000712510    -0.000000639991836
9 48
     0.000000069862231     0.000001220284622    -0.000000000000004
     0.000001220284622    -0.000001339201256    -0.000000000000002
    -0.000000001234111    -0.000000000712514    -0.000000639991837
9 49
     0.011731112491219     0.010824808646777    -0.004812441004074
     0.010824808646777     0.024230523299113     0.002778464283034
    -0.006275580451822     0.003623208289916     0.001331407332298
9 50
     0.011731111317925    -0.010824807969376     0.004812441154652