LAMMPS data file via write_data, version 2 Aug 2023, timestep = 43, units = metal

12 atoms
2 atom types

-0.05600499138420371 5.279004991384214 xlo xhi
-0.0485015284305074 4.571752212396631 ylo yhi
-0.05537834880834672 8.621378348808344 zlo zhi
-2.6675047409909225 0 0 xy xz yz

Masses

1 24.32
2 65.39

Atoms # atomic

1 1 -0.05600502130058904 3.0316668920624346 3.737688765283732 0 0 0
4 1 -0.05600502130058874 3.0316668920624346 0.48993288590792405 0 0 0
6 2 -0.05600499138420385 -0.04850152843050659 -0.055378348808344524 0 0 0
7 2 3.9267700763237032 0.7322095201991831 2.113810825595828 0 0 0
8 2 2.6114995917158463 3.0103241277890036 2.113810825595828 0 0 0
9 2 1.296229011856871 0.7322096060444784 2.113810825595828 0 0 0
2 1 2.6115002803096754 1.4915837919036914 4.828311234716271 0 0 0
3 1 2.611500280309675 1.4915837919036914 8.076067114092078 0 0 0
5 2 -0.056004991384203825 -0.04850152843050649 4.283000000000001 0 0 0
10 2 -1.3712748173146165 3.7910411637669417 6.452189174404175 0 0 0
11 2 -0.05600433270675943 1.5129265561771224 6.452189174404175 0 0 0
12 2 1.2592662471522156 3.7910410779216477 6.452189174404175 0 0 0

Velocities

1 0 0 0
4 0 0 0
6 0 0 0
7 0 0 0
8 0 0 0
9 0 0 0
2 0 0 0
3 0 0 0
5 0 0 0
10 0 0 0
11 0 0 0
12 0 0 0
