LAMMPS (2 Aug 2023 - Update 2)
OMP_NUM_THREADS environment is not set. Defaulting to 1 thread. (src/comm.cpp:98)
  using 1 OpenMP thread(s) per MPI task
Reading data file ...
  triclinic box = (0 0 0) to (26.888543 14.122763 47.247507) with tilt (3.065691 0 0)
  1 by 1 by 1 MPI processor grid
  reading atoms ...
  660 atoms
  read_data CPU = 0.051 seconds
Neighbor list info ...
  update: every = 1 steps, delay = 0 steps, check = yes
  max neighbors/atom: 2000, page size: 100000
  master list distance cutoff = 8
  ghost atom cutoff = 8
  binsize = 4, bins = 8 4 12
  2 neighbor lists, perpetual/occasional/extra = 2 0 0
  (1) pair meam, perpetual
      attributes: full, newton on
      pair build: full/bin/atomonly
      stencil: full/bin/3d
      bin: standard
  (2) pair meam, perpetual, half/full from (1)
      attributes: half, newton on
      pair build: halffull/newton
      stencil: none
      bin: none
Setting up cg style minimization ...
  Unit style    : metal
  Current step  : 0
WARNING: Energy due to 3 extra global DOFs will be included in minimizer energies
 (src/min.cpp:228)
Per MPI rank memory allocation (min/avg/max) = 11.05 | 11.05 | 11.05 Mbytes
   Step         PotEng         TotEng          Fmax          Press          Volume    
         0  -812.83322     -812.83322      1.1657737     -14750.284      17941.793    
        10  -813.13135     -813.13135      1.1807226     -14226.234      17907.894    
        20  -813.41505     -813.41505      1.1957382     -13695.924      17874.102    
        30  -813.68421     -813.68421      1.2108131     -13159.413      17840.42     
        40  -813.93872     -813.93872      1.2259413     -12616.77       17806.855    
        50  -814.17848     -814.17848      1.2411136     -12068.092      17773.414    
        60  -814.40338     -814.40338      1.2563197     -11513.496      17740.104    
        70  -814.61335     -814.61335      1.2715489     -10953.128      17706.934    
        80  -814.8083      -814.8083       1.2867866     -10387.178      17673.915    
        90  -814.98816     -814.98816      1.302016      -9815.8751      17641.061    
       100  -815.15288     -815.15288      1.3172175     -9239.5154      17608.385    
       110  -815.30241     -815.30241      1.3323652     -8658.4781      17575.908    
       120  -815.43675     -815.43675      1.3474277     -8073.2411      17543.652    
       130  -815.5559      -815.5559       1.3623649     -7484.4343      17511.648    
       140  -815.65991     -815.65991      1.3771224     -6892.905       17479.936    
       150  -815.74888     -815.74888      1.3916267     -6299.807       17448.569    
       160  -815.82299     -815.82299      1.4057727     -5706.7987      17417.623    
       170  -815.88252     -815.88252      1.4193979     -5116.3869      17387.214    
       180  -815.92795     -815.92795      1.4322311     -4532.6813      17357.532    
       190  -815.96015     -815.96015      1.443747      -3963.3389      17328.932    
       200  -815.98106     -815.98106      1.4526031     -3426.4229      17302.259    
       210  -816.00138     -816.00138      1.4501781     -3007.485       17281.539    
       220  -816.13748     -816.13748      1.3697869     -3043.9706      17281.951    
       230  -816.28376     -816.28376      1.2846734     -3033.1655      17280.001    
       240  -816.41181     -816.41181      1.2098545     -3008.2756      17277.595    
       250  -816.52839     -816.52839      1.1407894     -2994.1453      17275.872    
       260  -816.6118      -816.6118       1.0914636     -2979.2152      17274.44     
       270  -816.71327     -816.71327      1.0309772     -2960.6006      17272.718    
       280  -816.77668     -816.77668      0.99328152    -2952.9172      17271.864    
       290  -816.8648      -816.8648       0.94073947    -2937.6476      17270.49     
       300  -816.91905     -816.91905      0.90871081    -2926.1284      17269.567    
       310  -816.98777     -816.98777      0.86786374    -2922.9821      17268.983    
       320  -817.05182     -817.05182      0.83055058    -2896.7645      17267.337    
       330  -817.10007     -817.10007      0.80222697    -2896.6192      17267.073    
       340  -817.18404     -817.18404      0.7542465     -2861.6217      17264.973    
       350  -817.21521     -817.21521      0.7361095     -2862.9281      17264.903    
       360  -817.25503     -817.25503      0.71337812    -2863.1354      17264.758    
       370  -817.32335     -817.32335      0.67491609    -2855.8768      17264.176    
       380  -817.40142     -817.40142      0.63201708    -2816.5717      17262.062    
       390  -817.42905     -817.42905      0.61695271    -2819.0696      17262.129    
       400  -817.47015     -817.47015      0.5948931     -2816.251       17261.929    
       410  -817.54525     -817.54525      0.55571596    -2776.2753      17259.925    
       420  -817.56576     -817.56576      0.54516788    -2778.8274      17260.047    
       430  -817.59118     -817.59118      0.53209943    -2780.3123      17260.123    
       440  -817.62961     -817.62961      0.51268127    -2776.3376      17259.953    
       450  -817.67237     -817.67237      0.49178605    -2746.0914      17258.536    
       460  -817.69097     -817.69097      0.48269231    -2746.5104      17258.588    
       470  -817.71371     -817.71371      0.47158641    -2747.7816      17258.696    
       480  -817.74706     -817.74706      0.45558316    -2743.9518      17258.593    
       490  -817.77928     -817.77928      0.44068188    -2716.4829      17257.357    
       500  -817.79594     -817.79594      0.43289315    -2717.0044      17257.44     
       510  -817.8159      -817.8159       0.42358768    -2718.3976      17257.584    
       520  -817.84364     -817.84364      0.41086148    -2715.9162      17257.581    
       530  -817.87397     -817.87397      0.39742745    -2690.6636      17256.5      
       540  -817.88891     -817.88891      0.39081724    -2688.19        17256.46     
       550  -817.90577     -817.90577      0.38329248    -2689.887       17256.636    
       560  -817.92748     -817.92748      0.37372927    -2689.1632      17256.731    
       570  -817.95547     -817.95547      0.36170538    -2674.2223      17256.187    
       580  -817.97014     -817.97014      0.35562464    -2661.9611      17255.697    
       590  -817.98452     -817.98452      0.34946258    -2662.7293      17255.84     
       600  -818.00162     -818.00162      0.34220315    -2663.4513      17256.006    
       610  -818.02408     -818.02408      0.33280309    -2660.7481      17256.059    
       620  -818.04273     -818.04273      0.32539035    -2639.816       17255.207    
       630  -818.05546     -818.05546      0.32017476    -2636.4622      17255.159    
       640  -818.06924     -818.06924      0.31452942    -2637.6137      17255.345    
       650  -818.08569     -818.08569      0.30785448    -2637.7974      17255.516    
       660  -818.10616     -818.10616      0.29975001    -2630.916       17255.395    
       670  -818.12006     -818.12006      0.29444168    -2613.1817      17254.686    
       680  -818.13183     -818.13183      0.28982182    -2612.155       17254.768    
       690  -818.14456     -818.14456      0.28482859    -2612.3943      17254.927    
       700  -818.15918     -818.15918      0.27913961    -2612.35        17255.101    
       710  -818.17658     -818.17658      0.27248453    -2607.406       17255.078    
       720  -818.19003     -818.19003      0.26759414    -2591.3375      17254.475    
       730  -818.20096     -818.20096      0.2634886     -2587.0537      17254.414    
       740  -818.21233     -818.21233      0.25920727    -2587.0365      17254.569    
       750  -818.22464     -818.22464      0.25460426    -2586.5553      17254.721    
       760  -818.23857     -818.23857      0.24944699    -2585.4846      17254.873    
       770  -818.25331     -818.25331      0.24412808    -2575.8427      17254.629    
       780  -818.26419     -818.26419      0.24033315    -2564.4217      17254.247    
       790  -818.27439     -818.27439      0.23666359    -2561.4205      17254.264    
       800  -818.28493     -818.28493      0.23287476    -2560.6812      17254.402    
       810  -818.29603     -818.29603      0.22891366    -2559.544       17254.534    
       820  -818.30796     -818.30796      0.22468617    -2558.402       17254.686    
       830  -818.32089     -818.32089      0.22017407    -2554.1161      17254.709    
       840  -818.33209     -818.33209      0.21643744    -2541.7732      17254.318    
       850  -818.34165     -818.34165      0.2131898     -2534.6753      17254.153    
       860  -818.35123     -818.35123      0.20989912    -2533.5051      17254.281    
       870  -818.36104     -818.36104      0.20655272    -2531.8203      17254.393    
       880  -818.37114     -818.37114      0.20313177    -2530.1205      17254.514    
       890  -818.38162     -818.38162      0.1996096     -2528.1153      17254.633    
       900  -818.39257     -818.39257      0.19595721    -2526.0663      17254.766    
       910  -818.40366     -818.40366      0.19233663    -2518.9025      17254.659    
       920  -818.41313     -818.41313      0.18935233    -2508.5957      17254.372    
       930  -818.42207     -818.42207      0.18646642    -2503.3556      17254.321    
       940  -818.43107     -818.43107      0.18355191    -2501.4221      17254.436    
       950  -818.44016     -818.44016      0.18063106    -2499.0316      17254.536    
       960  -818.44933     -818.44933      0.17770125    -2496.6011      17254.641    
       970  -818.45862     -818.45862      0.17475973    -2493.9808      17254.744    
       980  -818.46801     -818.46801      0.17180496    -2491.2542      17254.85     
       990  -818.47752     -818.47752      0.16883639    -2488.2977      17254.953    
      1000  -818.48714     -818.48714      0.16585471    -2485.3591      17255.066    
      1010  -818.49686     -818.49686      0.16332979    -2481.1529      17255.125    
      1020  -818.50614     -818.50614      0.16086965    -2473.1669      17254.996    
      1030  -818.51479     -818.51479      0.15855099    -2464.0051      17254.797    
      1040  -818.5234      -818.5234       0.15626939    -2460.9388      17254.898    
      1050  -818.53208     -818.53208      0.15395354    -2457.4207      17254.984    
      1060  -818.54077     -818.54077      0.15161581    -2453.943       17255.078    
      1070  -818.5495      -818.5495       0.14925322    -2450.282       17255.17     
      1080  -818.55825     -818.55825      0.14686574    -2446.4887      17255.262    
      1090  -818.56703     -818.56703      0.14445227    -2442.5397      17255.353    
      1100  -818.57586     -818.57586      0.14201154    -2438.4331      17255.444    
      1110  -818.58472     -818.58472      0.13963551    -2434.1577      17255.536    
      1120  -818.59364     -818.59364      0.13748377    -2429.7029      17255.627    
      1130  -818.60263     -818.60263      0.13530968    -2425.0545      17255.718    
      1140  -818.6117      -818.6117       0.13310923    -2420.1958      17255.809    
      1150  -818.62088     -818.62088      0.13087739    -2415.1056      17255.901    
      1160  -818.63018     -818.63018      0.12860791    -2409.7582      17255.994    
      1170  -818.63964     -818.63964      0.1262933     -2404.1222      17256.087    
      1180  -818.64928     -818.64928      0.12392479    -2398.1593      17256.181    
      1190  -818.65916     -818.65916      0.12149247    -2391.8246      17256.277    
      1200  -818.66931     -818.66931      0.11898563    -2385.0651      17256.375    
      1210  -818.67976     -818.67976      0.11639344    -2377.8216      17256.475    
      1220  -818.69056     -818.69056      0.11370596    -2370.0297      17256.577    
      1230  -818.70174     -818.70174      0.11091505    -2361.6221      17256.682    
      1240  -818.71333     -818.71333      0.10801327    -2352.5245      17256.79     
      1250  -818.72538     -818.72538      0.10498231    -2342.5185      17256.896    
      1260  -818.73557     -818.73557      0.10254932    -2349.7146      17257.759    
      1270  -818.74332     -818.74332      0.10067476    -2351.8393      17258.264    
      1280  -818.75571     -818.75571      0.097547233   -2343.4691      17258.524    
      1290  -818.77234     -818.77234      0.093304274   -2331.9662      17258.898    
      1300  -818.79285     -818.79285      0.088001168   -2320.6361      17259.57     
      1310  -818.81881     -818.81881      0.081121622   -2303.5933      17260.406    
      1320  -818.85301     -818.85301      0.071652599   -2280.7024      17261.732    
      1330  -818.91184     -818.91184      0.058048056   -2228.3038      17264.198    
      1340  -819.00565     -819.00565      0.057533341   -2094.2361      17270.369    
      1346  -819.00944     -819.00944      0.058033146   -2069.1922      17269.667    
Loop time of 10.7406 on 1 procs for 1346 steps with 660 atoms

99.6% CPU use with 1 MPI tasks x 1 OpenMP threads

Minimization stats:
  Stopping criterion = linesearch alpha is zero
  Energy initial, next-to-last, final = 
     -812.833217284943  -819.009437475198  -819.009437475198
  Force two-norm initial, final = 227.38188 0.76527243
  Force max component initial, final = 169.63872 0.61117404
  Final line search alpha, max atom move = 1.1034812e-08 6.7441907e-09
  Iterations, force evaluations = 1346 1361

MPI task timing breakdown:
Section |  min time  |  avg time  |  max time  |%varavg| %total
---------------------------------------------------------------
Pair    | 10.681     | 10.681     | 10.681     |   0.0 | 99.45
Neigh   | 0          | 0          | 0          |   0.0 |  0.00
Comm    | 0.0072147  | 0.0072147  | 0.0072147  |   0.0 |  0.07
Output  | 0.0037172  | 0.0037172  | 0.0037172  |   0.0 |  0.03
Modify  | 0          | 0          | 0          |   0.0 |  0.00
Other   |            | 0.0484     |            |       |  0.45

Nlocal:            660 ave         660 max         660 min
Histogram: 1 0 0 0 0 0 0 0 0 0
Nghost:           1626 ave        1626 max        1626 min
Histogram: 1 0 0 0 0 0 0 0 0 0
Neighs:          35390 ave       35390 max       35390 min
Histogram: 1 0 0 0 0 0 0 0 0 0
FullNghs:        70780 ave       70780 max       70780 min
Histogram: 1 0 0 0 0 0 0 0 0 0

Total # of neighbors = 70780
Ave neighs/atom = 107.24242
Neighbor list builds = 0
Dangerous builds = 0
Total wall time: 0:00:10
