LAMMPS (2 Aug 2023 - Update 2)
OMP_NUM_THREADS environment is not set. Defaulting to 1 thread. (src/comm.cpp:98)
  using 1 OpenMP thread(s) per MPI task
Reading data file ...
  orthogonal box = (0 0 0) to (26.353648 5.336571 29.380349)
  1 by 1 by 1 MPI processor grid
  reading atoms ...
  110 atoms
  read_data CPU = 0.001 seconds
Neighbor list info ...
  update: every = 1 steps, delay = 0 steps, check = yes
  max neighbors/atom: 2000, page size: 100000
  master list distance cutoff = 8
  ghost atom cutoff = 8
  binsize = 4, bins = 7 2 8
  2 neighbor lists, perpetual/occasional/extra = 2 0 0
  (1) pair meam, perpetual
      attributes: full, newton on
      pair build: full/bin/atomonly
      stencil: full/bin/3d
      bin: standard
  (2) pair meam, perpetual, half/full from (1)
      attributes: half, newton on
      pair build: halffull/newton
      stencil: none
      bin: none
Setting up cg style minimization ...
  Unit style    : metal
  Current step  : 0
WARNING: Energy due to 3 extra global DOFs will be included in minimizer energies
 (src/min.cpp:228)
Per MPI rank memory allocation (min/avg/max) = 9.953 | 9.953 | 9.953 Mbytes
   Step         PotEng         TotEng          Fmax          Press          Volume    
         0  -130.26555     -130.26555      0.53285296    -11268.826      4131.9969    
        10  -130.32426     -130.32426      0.52992113    -10914.765      4124.0618    
        20  -130.38071     -130.38071      0.53177485    -10555.798      4116.1417    
        30  -130.43485     -130.43485      0.53382199    -10191.906      4108.2369    
        40  -130.48668     -130.48668      0.53586409    -9823.0684      4100.3479    
        50  -130.53616     -130.53616      0.53790133    -9449.2662      4092.4752    
        60  -130.58326     -130.58326      0.53993276    -9070.4931      4084.6195    
        70  -130.62798     -130.62798      0.54195821    -8686.7389      4076.7813    
        80  -130.67028     -130.67028      0.54397669    -8298.0053      4068.9614    
        90  -130.71014     -130.71014      0.54598769    -7904.305       4061.1608    
       100  -130.74755     -130.74755      0.54799001    -7505.657       4053.3805    
       110  -130.78247     -130.78247      0.54998218    -7102.0945      4045.6216    
       120  -130.81489     -130.81489      0.55196263    -6693.6653      4037.8858    
       130  -130.84479     -130.84479      0.55392873    -6280.4473      4030.1746    
       140  -130.87216     -130.87216      0.55587793    -5862.5337      4022.4904    
       150  -130.89698     -130.89698      0.55780601    -5440.0713      4014.8358    
       160  -130.91924     -130.91924      0.55970728    -5013.2495      4007.2144    
       170  -130.93894     -130.93894      0.56157422    -4582.3358      3999.6307    
       180  -130.95608     -130.95608      0.56339458    -4147.726       3992.0911    
       190  -130.97068     -130.97068      0.56515127    -3709.9847      3984.6046    
       200  -130.98278     -130.98278      0.5668133     -3270.003       3977.1848    
       210  -130.99246     -130.99246      0.56832609    -2829.2859      3969.8544    
       220  -130.9999      -130.9999       0.56956821    -2390.6724      3962.6559    
       230  -131.00565     -131.00565      0.57018729    -1961.0204      3955.6913    
       240  -131.01308     -131.01308      0.56773842    -1571.717       3949.4214    
       250  -131.07751     -131.07751      0.51769888    -1514.6171      3947.9346    
       260  -131.1486      -131.1486       0.46054845    -1516.2253      3947.4659    
       270  -131.20776     -131.20776      0.41214214    -1510.3671      3947.1143    
       280  -131.25531     -131.25531      0.38427528    -1502.4249      3946.902     
       290  -131.29497     -131.29497      0.37089645    -1493.2594      3946.7826    
       300  -131.32887     -131.32887      0.3584787     -1483.3381      3946.7292    
       310  -131.35838     -131.35838      0.34683951    -1472.9398      3946.7247    
       320  -131.38445     -131.38445      0.33584959    -1462.2358      3946.7576    
       330  -131.40772     -131.40772      0.325415      -1451.3378      3946.8196    
       340  -131.42866     -131.42866      0.31548204    -1440.3758      3946.9053    
       350  -131.44772     -131.44772      0.30595358    -1429.2738      3947.0092    
       360  -131.46515     -131.46515      0.29680919    -1418.1622      3947.1287    
       370  -131.48116     -131.48116      0.28801001    -1407.0529      3947.2612    
       380  -131.49596     -131.49596      0.27952358    -1395.959       3947.4043    
       390  -131.5097      -131.5097       0.27132334    -1384.888       3947.5566    
       400  -131.5225      -131.5225       0.2633852     -1373.8401      3947.7166    
       410  -131.53447     -131.53447      0.25568778    -1362.8168      3947.8833    
       420  -131.54572     -131.54572      0.24820505    -1351.5798      3948.0523    
       430  -131.55638     -131.55638      0.24086519    -1339.2802      3948.2122    
       440  -131.56671     -131.56671      0.23350551    -1325.6325      3948.3657    
       450  -131.5773      -131.5773       0.22570766    -1309.7572      3948.5213    
       460  -131.59013     -131.59013      0.2158896     -1287.7422      3948.7075    
       470  -131.62879     -131.62879      0.1839033     -1251.0345      3950.0531    
       480  -131.63553     -131.63553      0.1778265     -1231.2095      3950.1419    
       490  -131.64911     -131.64911      0.16627098    -1286.8095      3951.8888    
       500  -131.65506     -131.65506      0.16051872    -1265.168       3951.9639    
       510  -131.65977     -131.65977      0.15587875    -1247.0318      3952.0231    
       520  -131.66518     -131.66518      0.15044596    -1225.0048      3952.0906    
       530  -131.67707     -131.67707      0.13793638    -1164.3341      3952.1229    
       540  -131.68137     -131.68137      0.13332402    -1143.0053      3952.1751    
       550  -131.68943     -131.68943      0.1256537     -1200.6987      3953.8558    
       560  -131.69303     -131.69303      0.12160973    -1180.0093      3953.8992    
       570  -131.69621     -131.69621      0.1179817     -1160.8602      3953.9374    
       580  -131.70243     -131.70243      0.11073759    -1121.0932      3954.0126    
       590  -131.70616     -131.70616      0.1062947     -1095.3684      3954.0578    
       600  -131.70892     -131.70892      0.10297434    -1075.4656      3954.0911    
       610  -131.71302     -131.71302      0.097951484   -1044.2775      3954.1413    
       620  -131.72932     -131.72932      0.078711637   -1059.1059      3956.8653    
       630  -131.73124     -131.73124      0.076211215   -1038.3476      3956.8799    
       640  -131.73541     -131.73541      0.07066574    -991.23555      3956.9279    
       650  -131.73737     -131.73737      0.068048518   -967.90474      3956.954     
       660  -131.73924     -131.73924      0.065527313   -944.66698      3956.9796    
       670  -131.74246     -131.74246      0.062428767   -1003.3754      3958.6084    
       680  -131.74415     -131.74415      0.060153506   -980.30882      3958.6322    
       690  -131.74576     -131.74576      0.057961195   -957.31073      3958.6554    
       700  -131.74864     -131.74864      0.054028831   -914.11627      3958.6976    
       710  -131.75026     -131.75026      0.051817502   -888.45439      3958.7218    
       720  -131.75194     -131.75194      0.049524778   -860.76284      3958.7473    
       730  -131.75517     -131.75517      0.046397303   -905.53763      3960.3811    
       740  -131.75657     -131.75657      0.044518676   -879.76989      3960.4029    
       750  -131.75893     -131.75893      0.041361277   -834.15099      3960.44      
       760  -131.76041     -131.76041      0.03939763    -804.02115      3960.4635    
       770  -131.76234     -131.76234      0.036865924   -763.07645      3960.4943    
       780  -131.76412     -131.76412      0.035868926   -824.47905      3962.1059    
       790  -131.7655      -131.7655       0.034115234   -792.69506      3962.1286    
       800  -131.76751     -131.76751      0.031504358   -736.77155      3962.0434    
       810  -131.76882     -131.76882      0.029993254   -711.38734      3962.184     
       820  -131.77007     -131.77007      0.028827613   -706.37049      3962.6368    
       830  -131.7714      -131.7714       0.027394132   -682.38681      3962.8444    
       840  -131.77275     -131.77275      0.026147473   -672.18912      3963.3017    
       850  -131.77408     -131.77408      0.024821495   -649.63806      3963.5714    
       860  -131.77557     -131.77557      0.023464377   -632.43818      3964.0339    
       870  -131.77699     -131.77699      0.022154949   -609.8308       3964.4035    
       880  -131.77866     -131.77866      0.020686719   -585.99855      3964.9239    
       890  -131.78041     -131.78041      0.019173316   -556.8371       3965.4473    
       900  -131.78246     -131.78246      0.018543834   -522.66446      3966.1411    
       910  -131.78493     -131.78493      0.01772491    -476.02049      3967.0193    
       920  -131.7877      -131.7877       0.016367646   -418.9914       3968.1441    
       930  -131.79088     -131.79088      0.013975513   -338.86874      3969.627     
       940  -131.79346     -131.79346      0.011198799   -280.21662      3971.4914    
       950  -131.7938      -131.7938       0.0099943668  -187.24312      3970.4817    
       960  -131.7942      -131.7942       0.0097216806  -258.52393      3972.0763    
       970  -131.79467     -131.79467      0.0086978989  -226.13683      3972.1966    
       980  -131.79491     -131.79491      0.0081797001  -210.70447      3972.3088    
       990  -131.7953      -131.7953       0.0073818281  -196.55521      3972.678     
       998  -131.7978      -131.7978       0.0017620496  -5.0004072      3976.5507    
Loop time of 1.25366 on 1 procs for 998 steps with 110 atoms

99.3% CPU use with 1 MPI tasks x 1 OpenMP threads

Minimization stats:
  Stopping criterion = energy tolerance
  Energy initial, next-to-last, final = 
     -130.265545311946  -131.797794906529  -131.797795931603
  Force two-norm initial, final = 43.941456 0.037111234
  Force max component initial, final = 32.265286 0.025066292
  Final line search alpha, max atom move = 0.035266646 0.00088400402
  Iterations, force evaluations = 998 1010

MPI task timing breakdown:
Section |  min time  |  avg time  |  max time  |%varavg| %total
---------------------------------------------------------------
Pair    | 1.2379     | 1.2379     | 1.2379     |   0.0 | 98.74
Neigh   | 0          | 0          | 0          |   0.0 |  0.00
Comm    | 0.00193    | 0.00193    | 0.00193    |   0.0 |  0.15
Output  | 0.0042678  | 0.0042678  | 0.0042678  |   0.0 |  0.34
Modify  | 0          | 0          | 0          |   0.0 |  0.00
Other   |            | 0.009602   |            |       |  0.77

Nlocal:            110 ave         110 max         110 min
Histogram: 1 0 0 0 0 0 0 0 0 0
Nghost:            598 ave         598 max         598 min
Histogram: 1 0 0 0 0 0 0 0 0 0
Neighs:           5110 ave        5110 max        5110 min
Histogram: 1 0 0 0 0 0 0 0 0 0
FullNghs:        10220 ave       10220 max       10220 min
Histogram: 1 0 0 0 0 0 0 0 0 0

Total # of neighbors = 10220
Ave neighs/atom = 92.909091
Neighbor list builds = 0
Dangerous builds = 0
Total wall time: 0:00:01
