54   
1    

1    
  0.0052539907269635   0.0000000000000000   0.0085085593046638
  -0.0147394002    0.0000151302   -0.0242970600
   0.0032411798   -0.0000267598    0.0001300300
   0.0031839598    0.0000252202    0.0001485600
   0.0009443398   -0.0013342598    0.0001448000
   0.0009402598    0.0013389902    0.0001339500
   0.0000874798    0.0000004302   -0.0001980600
   0.0009411198   -0.0012861098    0.0001355500
   0.0000874698   -0.0000002498   -0.0001980600
   0.0009434898    0.0012831802    0.0001432200
  -0.0000473202    0.0000000102    0.0003116200
   0.0000083298   -0.0000267398   -0.0000083300
   0.0000100698   -0.0000136698   -0.0000072200
   0.0000061398   -0.0000095898   -0.0000182900
  -0.0000298102    0.0000283202    0.0000028300
  -0.0000043902   -0.0000000298   -0.0000049800
   0.0000049998    0.0000054102   -0.0000189700
  -0.0000042802    0.0000000002   -0.0000049200
  -0.0000291502    0.0000163602    0.0000032600
  -0.0000472602    0.0000000102    0.0003101600
   0.0000102898    0.0000133002   -0.0000072800
   0.0000077798    0.0000264802   -0.0000087900
  -0.0000298102   -0.0000272998    0.0000021500
   0.0000058098    0.0000096202   -0.0000183000
  -0.0000041602   -0.0000000298   -0.0000048500
  -0.0000283402   -0.0000166898    0.0000030300
  -0.0000042602    0.0000000002   -0.0000049100
   0.0000048198   -0.0000053198   -0.0000189400
   0.0000747398    0.0025652002    0.0038836400
   0.0001846898    0.0001182702    0.0001591700
  -0.0000636502    0.0000250302    0.0000052400
  -0.0000121702   -0.0000860598   -0.0000215800
  -0.0000464402    0.0001057702   -0.0000426400
  -0.0000202302   -0.0001440698    0.0000827200
   0.0032498898   -0.0018353098    0.0052871300
   0.0001368298   -0.0000198498   -0.0000320000
  -0.0011981902   -0.0007370498    0.0024985500
  -0.0000000002    0.0000000002   -0.0000000000
  -0.0000000002    0.0000000002   -0.0000000000
  -0.0000000002    0.0000000002   -0.0000000000
  -0.0000000002    0.0000000002   -0.0000000000
  -0.0000000002    0.0000000002   -0.0000000000
  -0.0000000002    0.0000000002   -0.0000000000
  -0.0000000002    0.0000000002   -0.0000000000
  -0.0000000002    0.0000000002   -0.0000000000
  -0.0000000002    0.0000000002   -0.0000000000
   0.0000907198   -0.0024863498    0.0037960900
  -0.0000649302   -0.0000257698    0.0000062400
   0.0001923198   -0.0001228398    0.0001644900
  -0.0000463902   -0.0001043798   -0.0000426900
  -0.0000126602    0.0000848202   -0.0000217700
  -0.0000203702    0.0001479002    0.0000849000
  -0.0011697502    0.0007257202    0.0024795700
   0.0001343298    0.0000194102   -0.0000323400
   0.0031319098    0.0017538402    0.0050950800
