LAMMPS data file via write_data, version 2 Aug 2023, timestep = 7, units = metal

2 atoms
1 atom types

0.00046750457130818196 3.209532495428692 xlo xhi
0.00040487083513801337 2.7795366753129094 ylo yhi
0.00806472988471413 5.2049752701152885 zlo zhi
-1.6045324954286921 0 0 xy xz yz

Masses

1 24.32

Atoms # atomic

1 1 0.00046750457130818196 0.00040487083513801337 0.00806472988471413 0 0 0
2 1 0.00046750457130813637 1.8531594071536517 2.606520000000001 0 0 0

Velocities

1 0 0 0
2 0 0 0
