LAMMPS (2 Aug 2023 - Update 2)
OMP_NUM_THREADS environment is not set. Defaulting to 1 thread. (src/comm.cpp:98)
  using 1 OpenMP thread(s) per MPI task
Reading data file ...
  triclinic box = (0 0 0) to (52.241956 22.62143 51.148607) with tilt (-13.060489 0 0)
WARNING: Triclinic box skew is large. LAMMPS will run inefficiently. (src/domain.cpp:220)
  1 by 1 by 1 MPI processor grid
  reading atoms ...
  2208 atoms
  reading velocities ...
  2208 velocities
  read_data CPU = 0.049 seconds
Neighbor list info ...
  update: every = 1 steps, delay = 0 steps, check = yes
  max neighbors/atom: 2000, page size: 100000
  master list distance cutoff = 8
  ghost atom cutoff = 8
  binsize = 4, bins = 17 6 13
  2 neighbor lists, perpetual/occasional/extra = 2 0 0
  (1) pair meam, perpetual
      attributes: full, newton on
      pair build: full/bin/atomonly
      stencil: full/bin/3d
      bin: standard
  (2) pair meam, perpetual, half/full from (1)
      attributes: half, newton on
      pair build: halffull/newton
      stencil: none
      bin: none
Setting up cg style minimization ...
  Unit style    : metal
  Current step  : 0
WARNING: Energy due to 3 extra global DOFs will be included in minimizer energies
 (src/min.cpp:228)
Per MPI rank memory allocation (min/avg/max) = 14.58 | 14.58 | 14.58 Mbytes
   Step         PotEng         TotEng          Fmax          Press          Volume    
         0  -2805.0025     -2805.0025      0.59292468    -11532.635      60446.797    
        10  -2805.9078     -2805.9078      0.59073468    -10904.393      60325.964    
        20  -2806.7553     -2806.7553      0.58849725    -10266.911      60205.252    
        30  -2807.5441     -2807.5441      0.58621171    -9620.069       60084.661    
        40  -2808.2736     -2808.2736      0.58387699    -8963.7774      59964.19     
        50  -2808.943      -2808.943       0.5814925     -8297.9165      59843.841    
        60  -2809.5516     -2809.5516      0.57905741    -7622.3883      59723.612    
        70  -2810.0985     -2810.0985      0.57657063    -6937.0755      59603.504    
        80  -2810.5831     -2810.5831      0.57403145    -6241.8744      59483.517    
        90  -2811.0045     -2811.0045      0.57143893    -5536.6725      59363.652    
       100  -2811.362      -2811.362       0.56879173    -4821.3523      59243.907    
       110  -2811.6548     -2811.6548      0.56608884    -4095.8077      59124.282    
       120  -2811.8821     -2811.8821      0.5633285     -3359.9182      59004.779    
       130  -2812.0432     -2812.0432      0.56050762    -2613.5782      58885.397    
       140  -2812.1375     -2812.1375      0.55761884    -1856.6736      58766.136    
       150  -2812.1746     -2812.1746      0.55497163    -1243.8921      58670.814    
       160  -2812.2259     -2812.2259      0.55353494    -1245.9718      58670.813    
       170  -2812.2819     -2812.2819      0.5519467     -1248.2137      58670.813    
       180  -2812.3455     -2812.3455      0.55011343    -1250.725       58670.812    
       190  -2812.4247     -2812.4247      0.54779138    -1253.6783      58670.793    
       200  -2812.5197     -2812.5197      0.54486905    -1235.2939      58667.396    
       210  -2812.5598     -2812.5598      0.54360784    -1227.8132      58666.01     
       220  -2812.6004     -2812.6004      0.54235726    -1229.1649      58665.987    
       230  -2812.6418     -2812.6418      0.54106891    -1230.6755      58665.986    
       240  -2812.6844     -2812.6844      0.53972986    -1232.2129      58665.986    
       250  -2812.7286     -2812.7286      0.53832268    -1233.791       58665.986    
       260  -2812.7752     -2812.7752      0.53682231    -1235.4324      58665.986    
       270  -2812.8253     -2812.8253      0.53518933    -1237.1713      58665.986    
       280  -2812.8809     -2812.8809      0.53335381    -1239.0684      58665.986    
       290  -2812.9461     -2812.9461      0.53116417    -1241.2544      58665.986    
       300  -2813.0351     -2813.0351      0.52811602    -1244.1457      58665.984    
       310  -2813.1759     -2813.1759      0.52298857    -1204.3759      58659.162    
       320  -2813.21       -2813.21        0.52175724    -1207.6385      58659.506    
       330  -2813.2462     -2813.2462      0.52043854    -1208.7027      58659.502    
       340  -2813.2824     -2813.2824      0.5191038     -1209.7759      58659.502    
       350  -2813.3189     -2813.3189      0.51774566    -1210.8419      58659.502    
       360  -2813.3559     -2813.3559      0.51635545    -1211.9065      58659.502    
       370  -2813.3937     -2813.3937      0.51492275    -1212.9761      58659.502    
       380  -2813.4325     -2813.4325      0.51343439    -1214.0584      58659.502    
       390  -2813.4728     -2813.4728      0.51187269    -1215.1628      58659.502    
       400  -2813.5151     -2813.5151      0.51021253    -1216.3028      58659.502    
       410  -2813.5605     -2813.5605      0.50841512    -1217.4983      58659.502    
       420  -2813.6103     -2813.6103      0.50641368    -1218.7834      58659.502    
       430  -2813.6677     -2813.6677      0.50407158    -1220.2274      58659.502    
       440  -2813.7418     -2813.7418      0.50099619    -1222.0276      58659.502    
       450  -2813.9051     -2813.9051      0.49388563    -1194.6232      58654.7      
       460  -2813.9346     -2813.9346      0.49252099    -1182.1977      58652.685    
       470  -2813.9678     -2813.9678      0.49104612    -1182.6661      58652.649    
       480  -2814.001      -2814.001       0.48955772    -1183.3562      58652.65     
       490  -2814.0342     -2814.0342      0.48805147    -1184.0311      58652.65     
       500  -2814.0677     -2814.0677      0.48651973    -1184.6961      58652.65     
       510  -2814.1017     -2814.1017      0.48495375    -1185.3544      58652.65     
       520  -2814.1363     -2814.1363      0.48334314    -1186.009       58652.65     
       530  -2814.1718     -2814.1718      0.48167482    -1186.6637      58652.65     
       540  -2814.2085     -2814.2085      0.4799315     -1187.3229      58652.65     
       550  -2814.2468     -2814.2468      0.478089      -1187.9926      58652.65     
       560  -2814.2876     -2814.2876      0.47611097    -1188.6814      58652.65     
       570  -2814.3318     -2814.3318      0.4739372     -1189.4035      58652.65     
       580  -2814.3818     -2814.3818      0.47145258    -1190.1851      58652.65     
       590  -2814.4427     -2814.4427      0.468372      -1191.0807      58652.648    
       600  -2814.5219     -2814.5219      0.46421387    -1170.4368      58649.295    
       610  -2814.5498     -2814.5498      0.46267052    -1153.41        58646.614    
       620  -2814.5813     -2814.5813      0.46100876    -1153.4317      58646.556    
       630  -2814.6128     -2814.6128      0.45932998    -1153.8324      58646.558    
       640  -2814.6444     -2814.6444      0.45763421    -1154.205       58646.558    
       650  -2814.6762     -2814.6762      0.45591361    -1154.5652      58646.558    
       660  -2814.7082     -2814.7082      0.45415932    -1154.9141      58646.558    
       670  -2814.7408     -2814.7408      0.45236097    -1155.2531      58646.558    
       680  -2814.7742     -2814.7742      0.45050577    -1155.5835      58646.558    
       690  -2814.8085     -2814.8085      0.44857713    -1155.9064      58646.558    
       700  -2814.8442     -2814.8442      0.44655222    -1156.2236      58646.558    
       710  -2814.8818     -2814.8818      0.4443974     -1156.5372      58646.558    
       720  -2814.9221     -2814.9221      0.4420588     -1156.8501      58646.558    
       730  -2814.9668     -2814.9668      0.4394385     -1157.1679      58646.558    
       740  -2815.0193     -2815.0193      0.43631725    -1157.4984      58646.557    
       750  -2815.0876     -2815.0876      0.43215381    -1149.2415      58645.228    
       760  -2815.116      -2815.116       0.43028377    -1118.6894      58640.5      
       770  -2815.1465     -2815.1465      0.42839406    -1118.0454      58640.381    
       780  -2815.1775     -2815.1775      0.42646501    -1118.2638      58640.396    
       790  -2815.2085     -2815.2085      0.42451954    -1118.3695      58640.397    
       800  -2815.2396     -2815.2396      0.42254996    -1118.4576      58640.397    
       810  -2815.2709     -2815.2709      0.42054691    -1118.5315      58640.397    
       820  -2815.3027     -2815.3027      0.41849967    -1118.5907      58640.397    
       830  -2815.3351     -2815.3351      0.41639522    -1118.6348      58640.397    
       840  -2815.3683     -2815.3683      0.41421681    -1118.663       58640.397    
       850  -2815.4027     -2815.4027      0.41194144    -1118.6738      58640.397    
       860  -2815.4387     -2815.4387      0.40953516    -1118.6651      58640.397    
       870  -2815.4771     -2815.4771      0.40694344    -1118.6322      58640.396    
       880  -2815.5192     -2815.5192      0.40406835    -1118.4957      58640.385    
       890  -2815.563      -2815.563       0.40098305    -1103.3297      58638.064    
       900  -2815.589      -2815.589       0.39908266    -1084.2606      58635.139    
       910  -2815.6199     -2815.6199      0.39691005    -1083.3817      58635.019    
       920  -2815.6514     -2815.6514      0.39468139    -1083.4671      58635.05     
       930  -2815.683      -2815.683       0.39242552    -1083.3436      58635.051    
       940  -2815.7149     -2815.7149      0.39013508    -1083.1927      58635.051    
       950  -2815.7471     -2815.7471      0.38779932    -1083.0241      58635.051    
       960  -2815.7798     -2815.7798      0.38540541    -1082.8356      58635.051    
       970  -2815.8132     -2815.8132      0.38293676    -1082.6245      58635.051    
       980  -2815.8477     -2815.8477      0.38037022    -1082.3868      58635.05     
       990  -2815.8836     -2815.8836      0.37767084    -1082.1035      58635.048    
      1000  -2815.9215     -2815.9215      0.3747891     -1081.1307      58634.945    
      1010  -2815.9558     -2815.9558      0.37207441    -1058.6974      58631.538    
      1020  -2815.9834     -2815.9834      0.36990076    -1050.4745      58630.312    
      1030  -2816.0159     -2816.0159      0.36736923    -1049.8357      58630.262    
      1040  -2816.0491     -2816.0491      0.3647691     -1049.7824      58630.306    
      1050  -2816.0826     -2816.0826      0.36212129    -1049.4241      58630.307    
      1060  -2816.1165     -2816.1165      0.35942017    -1049.0297      58630.305    
      1070  -2816.1509     -2816.1509      0.35665477    -1048.612       58630.304    
      1080  -2816.1859     -2816.1859      0.35380989    -1048.1566      58630.302    
      1090  -2816.222      -2816.222       0.35086338    -1047.5624      58630.284    
      1100  -2816.2588     -2816.2588      0.34781021    -1044.2234      58629.848    
      1110  -2816.2899     -2816.2899      0.34512127    -1021.7788      58626.464    
      1120  -2816.321      -2816.321       0.34249178    -1017.6863      58625.906    
      1130  -2816.3564     -2816.3564      0.33950038    -1017.3215      58625.935    
      1140  -2816.3928     -2816.3928      0.33640229    -1017.0976      58625.991    
      1150  -2816.4298     -2816.4298      0.33322191    -1016.4331      58625.984    
      1160  -2816.4674     -2816.4674      0.32996328    -1015.6989      58625.972    
      1170  -2816.5055     -2816.5055      0.32662302    -1014.7495      58625.933    
      1180  -2816.544      -2816.544       0.32321734    -1011.0052      58625.469    
      1190  -2816.5779     -2816.5779      0.32010297    -990.96224      58622.489    
      1200  -2816.6115     -2816.6115      0.31706986    -986.17905      58621.857    
      1210  -2816.6511     -2816.6511      0.31349277    -984.91621      58621.79     
      1220  -2816.6927     -2816.6927      0.30969261    -984.67913      58621.892    
      1230  -2816.7356     -2816.7356      0.30574039    -983.61522      58621.876    
      1240  -2816.7792     -2816.7792      0.30169122    -981.97211      58621.78     
      1250  -2816.8221     -2816.8221      0.29763455    -974.61955      58620.808    
      1260  -2816.8588     -2816.8588      0.29407188    -954.91429      58617.92     
      1270  -2816.8981     -2816.8981      0.29032101    -953.26475      58617.821    
      1280  -2816.9462     -2816.9462      0.28568167    -950.85977      58617.648    
      1290  -2816.9988     -2816.9988      0.28056362    -949.888        58617.722    
      1300  -2817.0534     -2817.0534      0.27518929    -947.90903      58617.66     
      1310  -2817.1064     -2817.1064      0.26988425    -938.51624      58616.46     
      1320  -2817.1453     -2817.1453      0.26588733    -916.9014       58613.323    
      1330  -2817.188      -2817.188       0.26156637    -913.09531      58612.946    
      1340  -2817.2489     -2817.2489      0.25534684    -910.68952      58612.884    
      1350  -2817.3212     -2817.3212      0.24784714    -907.24324      58612.741    
      1360  -2817.3965     -2817.3965      0.23980553    -882.90343      58609.429    
      1370  -2817.4737     -2817.4737      0.23152046    -872.90281      58608.353    
      1380  -2817.5702     -2817.5702      0.22095221    -856.32792      58606.422    
      1390  -2817.729      -2817.729       0.20295198    -843.61018      58605.605    
      1400  -2817.8985     -2817.8985      0.1824341     -790.43237      58598.862    
      1410  -2818.136      -2818.136       0.15640431    -742.66766      58593.928    
      1420  -2818.2864     -2818.2864      0.14930449    -718.18659      58591.959    
      1430  -2818.4042     -2818.4042      0.14323901    -652.44502      58583.303    
      1440  -2818.4198     -2818.4198      0.14238984    -603.09163      58575.877    
      1450  -2818.4703     -2818.4703      0.13998214    -679.2337       58587.927    
      1460  -2818.4807     -2818.4807      0.13928347    -620.48427      58579.025    
      1470  -2818.5029     -2818.5029      0.13818482    -615.88553      58578.507    
      1480  -2818.5185     -2818.5185      0.13751782    -689.5891       58589.918    
      1490  -2818.5467     -2818.5467      0.13584949    -640.95616      58582.724    
      1500  -2818.5646     -2818.5646      0.134955      -646.99829      58583.809    
      1510  -2818.5758     -2818.5758      0.13424478    -624.56953      58580.48     
      1520  -2818.5918     -2818.5918      0.13350375    -660.43924      58586.118    
      1530  -2818.6097     -2818.6097      0.13230694    -576.25337      58573.414    
      1540  -2818.6192     -2818.6192      0.13178016    -608.31228      58578.403    
      1550  -2818.6449     -2818.6449      0.13017678    -577.17628      58573.895    
      1560  -2818.6647     -2818.6647      0.12908491    -594.74847      58576.778    
      1570  -2818.6759     -2818.6759      0.12838544    -596.1701       58577.108    
      1580  -2818.6853     -2818.6853      0.12767521    -542.60267      58569.022    
      1590  -2818.7005     -2818.7005      0.12696732    -629.08556      58582.395    
      1600  -2818.7068     -2818.7068      0.1266735     -627.78489      58582.262    
      1610  -2818.7152     -2818.7152      0.12604082    -572.11288      58573.839    
      1620  -2818.7351     -2818.7351      0.12482367    -588.78226      58576.597    
      1630  -2818.7484     -2818.7484      0.12401391    -632.91467      58583.49     
      1640  -2818.7647     -2818.7647      0.12299548    -626.79368      58582.731    
      1650  -2818.7721     -2818.7721      0.12229115    -591.05479      58577.35     
      1660  -2818.7813     -2818.7813      0.12178921    -555.09258      58571.954    
      1670  -2818.7873     -2818.7873      0.12129185    -529.20913      58568.068    
      1680  -2818.7951     -2818.7951      0.1207568     -576.33262      58575.356    
      1690  -2818.8033     -2818.8033      0.12048795    -625.73129      58583.001    
      1700  -2818.8089     -2818.8089      0.12011792    -629.00534      58583.565    
      1710  -2818.8179     -2818.8179      0.11922266    -545.05055      58570.833    
      1720  -2818.8262     -2818.8262      0.11888084    -595.95716      58578.707    
      1730  -2818.8339     -2818.8339      0.11839491    -586.68596      58577.38     
      1740  -2818.844      -2818.844       0.11749027    -569.47148      58574.868    
      1750  -2818.8544     -2818.8544      0.11671396    -552.69922      58572.428    
      1760  -2818.8831     -2818.8831      0.11498114    -625.53095      58583.909    
      1770  -2818.8915     -2818.8915      0.11429756    -572.66195      58575.924    
      1780  -2818.904      -2818.904       0.11313715    -467.88903      58560.083    
      1790  -2818.9116     -2818.9116      0.11269688    -524.57496      58568.824    
      1800  -2818.9303     -2818.9303      0.11131065    -541.99194      58571.718    
      1810  -2818.9371     -2818.9371      0.11079248    -584.60359      58578.324    
      1820  -2818.9491     -2818.9491      0.1099333     -500.82706      58565.668    
      1830  -2818.9579     -2818.9579      0.10949319    -578.12715      58577.587    
      1840  -2818.9695     -2818.9695      0.10833848    -532.59058      58570.78     
      1850  -2818.9777     -2818.9777      0.10790531    -555.01808      58574.309    
      1860  -2818.9842     -2818.9842      0.10695902    -419.08239      58553.656    
      1870  -2818.9924     -2818.9924      0.10675939    -547.31799      58573.321    
      1880  -2819.0005     -2819.0005      0.10607056    -523.75643      58569.828    
      1890  -2819.0078     -2819.0078      0.10583851    -641.02246      58587.863    
      1900  -2819.0149     -2819.0149      0.1049432     -517.99135      58569.136    
      1910  -2819.0209     -2819.0209      0.10454039    -539.46843      58572.496    
      1920  -2819.0271     -2819.0271      0.10426932    -560.34447      58575.779    
      1930  -2819.0366     -2819.0366      0.10322912    -490.50864      58565.229    
      1940  -2819.049      -2819.049       0.10237924    -548.66892      58574.278    
      1950  -2819.0566     -2819.0566      0.10153116    -513.02743      58568.938    
      1960  -2819.0633     -2819.0633      0.10133255    -569.85992      58577.713    
      1970  -2819.0692     -2819.0692      0.10075084    -535.48695      58572.538    
      1980  -2819.0751     -2819.0751      0.10027432    -553.72575      58575.405    
      1990  -2819.0853     -2819.0853      0.099066839   -455.12601      58560.492    
      2000  -2819.1028     -2819.1028      0.098172415   -600.11663      58582.889    
      2010  -2819.1089     -2819.1089      0.097097922   -473.85425      58563.679    
      2020  -2819.1162     -2819.1162      0.096627985   -521.34322      58571.03     
      2030  -2819.1203     -2819.1203      0.096288412   -516.74253      58570.383    
      2040  -2819.1261     -2819.1261      0.096083296   -539.65411      58573.964    
      2050  -2819.1307     -2819.1307      0.095533285   -507.30763      58569.084    
      2060  -2819.1373     -2819.1373      0.095082391   -544.109        58574.799    
      2070  -2819.1544     -2819.1544      0.093537005   -527.30385      58572.474    
      2080  -2819.1625     -2819.1625      0.092643554   -493.28234      58567.396    
      2090  -2819.1672     -2819.1672      0.092228835   -436.51275      58558.799    
      2100  -2819.1801     -2819.1801      0.091040303   -421.12279      58556.637    
      2110  -2819.1902     -2819.1902      0.090354325   -481.88347      58566.047    
      2120  -2819.2146     -2819.2146      0.088060749   -453.78099      58562.115    
      2130  -2819.2391     -2819.2391      0.086008819   -496.93868      58569.071    
      2140  -2819.2445     -2819.2445      0.085491882   -515.11775      58571.929    
      2150  -2819.93       -2819.93        0.068459746   -391.56279      58555.324    
      2160  -2820.039      -2820.039       0.039333359   -285.19297      58549.819    
      2170  -2820.0406     -2820.0406      0.038379124   -320.30471      58555.178    
      2180  -2820.0435     -2820.0435      0.037494551   -309.60401      58553.546    
Loop time of 64.3777 on 1 procs for 2180 steps with 2208 atoms

99.6% CPU use with 1 MPI tasks x 1 OpenMP threads

Minimization stats:
  Stopping criterion = energy tolerance
  Energy initial, next-to-last, final = 
     -2805.00251795722  -2820.04344333143  -2820.04346318878
  Force two-norm initial, final = 660.40301 0.73608551
  Force max component initial, final = 466.95388 0.54984221
  Final line search alpha, max atom move = 0.00019357382 0.00010643506
  Iterations, force evaluations = 2180 2269

MPI task timing breakdown:
Section |  min time  |  avg time  |  max time  |%varavg| %total
---------------------------------------------------------------
Pair    | 64.074     | 64.074     | 64.074     |   0.0 | 99.53
Neigh   | 0.0068275  | 0.0068275  | 0.0068275  |   0.0 |  0.01
Comm    | 0.025189   | 0.025189   | 0.025189   |   0.0 |  0.04
Output  | 0.028381   | 0.028381   | 0.028381   |   0.0 |  0.04
Modify  | 0          | 0          | 0          |   0.0 |  0.00
Other   |            | 0.2435     |            |       |  0.38

Nlocal:           2208 ave        2208 max        2208 min
Histogram: 1 0 0 0 0 0 0 0 0 0
Nghost:           3046 ave        3046 max        3046 min
Histogram: 1 0 0 0 0 0 0 0 0 0
Neighs:         122448 ave      122448 max      122448 min
Histogram: 1 0 0 0 0 0 0 0 0 0
FullNghs:       244896 ave      244896 max      244896 min
Histogram: 1 0 0 0 0 0 0 0 0 0

Total # of neighbors = 244896
Ave neighs/atom = 110.91304
Neighbor list builds = 1
Dangerous builds = 0
Total wall time: 0:01:04
