LAMMPS (2 Aug 2023 - Update 2)
OMP_NUM_THREADS environment is not set. Defaulting to 1 thread. (src/comm.cpp:98)
  using 1 OpenMP thread(s) per MPI task
Reading data file ...
  orthogonal box = (0 0 0) to (45.242861 8.787871 42.106413)
  1 by 1 by 1 MPI processor grid
  reading atoms ...
  552 atoms
  reading velocities ...
  552 velocities
  read_data CPU = 0.037 seconds
Neighbor list info ...
  update: every = 1 steps, delay = 0 steps, check = yes
  max neighbors/atom: 2000, page size: 100000
  master list distance cutoff = 8
  ghost atom cutoff = 8
  binsize = 4, bins = 12 3 11
  2 neighbor lists, perpetual/occasional/extra = 2 0 0
  (1) pair meam, perpetual
      attributes: full, newton on
      pair build: full/bin/atomonly
      stencil: full/bin/3d
      bin: standard
  (2) pair meam, perpetual, half/full from (1)
      attributes: half, newton on
      pair build: halffull/newton
      stencil: none
      bin: none
Setting up cg style minimization ...
  Unit style    : metal
  Current step  : 0
WARNING: Energy due to 3 extra global DOFs will be included in minimizer energies
 (src/min.cpp:228)
Per MPI rank memory allocation (min/avg/max) = 10.91 | 10.91 | 10.91 Mbytes
   Step         PotEng         TotEng          Fmax          Press          Volume    
         0  -690.62669     -690.62669      0.28472356    -9642.0361      16741.022    
        10  -690.82403     -690.82403      0.28047695    -9081.5897      16708.337    
        20  -691.00711     -691.00711      0.28228711    -8514.1271      16675.741    
        30  -691.1758      -691.1758       0.28451719    -7939.728       16643.242    
        40  -691.32997     -691.32997      0.28674972    -7358.5251      16610.847    
        50  -691.46949     -691.46949      0.28898423    -6770.6981      16578.57     
        60  -691.59426     -691.59426      0.29121996    -6176.4999      16546.424    
        70  -691.70419     -691.70419      0.29345544    -5576.2938      16514.429    
        80  -691.79919     -691.79919      0.29568975    -4970.5919      16482.61     
        90  -691.87923     -691.87923      0.29792113    -4360.166       16451.006    
       100  -691.9443      -691.9443       0.30014593    -3746.207       16419.672    
       110  -691.99447     -691.99447      0.30235841    -3130.7192      16388.703    
       120  -692.02996     -692.02996      0.3045474     -2517.5033      16358.273    
       130  -692.05134     -692.05134      0.30667919    -1915.6139      16328.803    
       140  -692.06116     -692.06116      0.30852483    -1366.1692      16302.208    
       150  -692.09211     -692.09211      0.30460058    -1279.2357      16297.751    
       160  -692.12993     -692.12993      0.29900807    -1286.7573      16297.79     
       170  -692.21651     -692.21651      0.28582845    -1302.3579      16297.831    
       180  -692.25873     -692.25873      0.27921321    -1308.9072      16297.817    
       190  -692.28805     -692.28805      0.2745444     -1313.0266      16297.793    
       200  -692.3137      -692.3137       0.27040737    -1316.3281      16297.763    
       210  -692.33786     -692.33786      0.26646522    -1319.1682      16297.726    
       220  -692.36165     -692.36165      0.26254041    -1321.6975      16297.68     
       230  -692.38594     -692.38594      0.25848895    -1323.9941      16297.625    
       240  -692.41169     -692.41169      0.25414278    -1326.1005      16297.555    
       250  -692.44043     -692.44043      0.24923207    -1328.0322      16297.463    
       260  -692.47554     -692.47554      0.24314298    -1329.7618      16297.329    
       270  -692.53283     -692.53283      0.23299134    -1331.0065      16297.058    
       280  -692.79229     -692.79229      0.19276085    -1253.3776      16292.281    
       290  -692.8078      -692.8078       0.19053352    -1255.3301      16292.332    
       300  -692.82306     -692.82306      0.18834318    -1251.1032      16292.089    
       310  -692.83908     -692.83908      0.186026      -1246.6986      16291.839    
       320  -692.85594     -692.85594      0.18356523    -1242.869       16291.617    
       330  -692.87337     -692.87337      0.18099969    -1239.5602      16291.423    
       340  -692.89101     -692.89101      0.17837874    -1236.6225      16291.249    
       350  -692.9086      -692.9086       0.17574421    -1233.9262      16291.091    
       360  -692.92594     -692.92594      0.17312407    -1231.3834      16290.944    
       370  -692.94296     -692.94296      0.17053437    -1228.9369      16290.806    
       380  -692.9596      -692.9596       0.16798317    -1226.5598      16290.675    
       390  -692.97585     -692.97585      0.1654741     -1224.2254      16290.55     
       400  -692.99172     -692.99172      0.16300811    -1221.946       16290.43     
       410  -693.0072      -693.0072       0.16058548    -1219.6626      16290.315    
       420  -693.02233     -693.02233      0.15820459    -1217.508       16290.208    
       430  -693.0371      -693.0371       0.15586681    -1215.1223      16290.093    
       440  -693.05155     -693.05155      0.15356519    -1213.509       16290.018    
       450  -693.06534     -693.06534      0.15135589    -1212.2638      16289.963    
       460  -693.07759     -693.07759      0.14938216    -1213.7094      16290.039    
       470  -693.08914     -693.08914      0.14751833    -1210.8327      16289.909    
       480  -693.10093     -693.10093      0.1461091     -1208.095       16289.789    
       490  -693.113       -693.113        0.14469982    -1204.717       16289.64     
       500  -693.12515     -693.12515      0.14327855    -1203.6492      16289.603    
       510  -693.13663     -693.13663      0.14192657    -1202.9267      16289.585    
       520  -693.14733     -693.14733      0.14065171    -1202.7742      16289.594    
       530  -693.15788     -693.15788      0.13935971    -1199.4879      16289.455    
       540  -693.16866     -693.16866      0.13803081    -1197.2195      16289.367    
       550  -693.17952     -693.17952      0.13667841    -1194.6819      16289.269    
       560  -693.18995     -693.18995      0.13538605    -1195.3945      16289.327    
       570  -693.1998      -693.1998       0.1341371     -1193.755       16289.273    
       580  -693.20954     -693.20954      0.13288656    -1192.0059      16289.214    
       590  -693.2194      -693.2194       0.13159724    -1188.6523      16289.082    
       600  -693.22929     -693.22929      0.13030604    -1187.8435      16289.073    
       610  -693.23886     -693.23886      0.12904639    -1186.6972      16289.049    
       620  -693.24803     -693.24803      0.1278291     -1186.5302      16289.072    
       630  -693.25709     -693.25709      0.12659562    -1183.6069      16288.965    
       640  -693.26623     -693.26623      0.12534561    -1181.8597      16288.916    
       650  -693.27537     -693.27537      0.12408171    -1179.568       16288.843    
       660  -693.28426     -693.28426      0.1228569     -1180.0148      16288.901    
       670  -693.29287     -693.29287      0.12164571    -1178.2531      16288.855    
       680  -693.30139     -693.30139      0.12043259    -1176.8052      16288.825    
       690  -693.30998     -693.30998      0.11918999    -1173.7608      16288.721    
       700  -693.31854     -693.31854      0.11795369    -1173.1912      16288.738    
       710  -693.32691     -693.32691      0.11673039    -1171.8999      16288.721    
       720  -693.33508     -693.33508      0.11552856    -1171.6032      16288.752    
       730  -693.34321     -693.34321      0.11430339    -1168.7354      16288.662    
       740  -693.35137     -693.35137      0.11306861    -1167.2613      16288.641    
       750  -693.35952     -693.35952      0.1118214     -1165.1672      16288.593    
       760  -693.36751     -693.36751      0.11060085    -1165.5537      16288.664    
       770  -693.37539     -693.37539      0.10937096    -1163.5305      16288.622    
       780  -693.38324     -693.38324      0.10813149    -1162.0304      16288.606    
       790  -693.39115     -693.39115      0.1068615     -1159.0701      16288.524    
       800  -693.39903     -693.39903      0.10560074    -1158.8513      16288.575    
       810  -693.40682     -693.40682      0.10433626    -1157.4802      16288.573    
       820  -693.41453     -693.41453      0.10306993    -1156.7451      16288.604    
       830  -693.42231     -693.42231      0.10176378    -1153.4817      16288.517    
       840  -693.43012     -693.43012      0.10044753    -1152.2252      16288.529    
       850  -693.43795     -693.43795      0.09911517    -1150.5341      16288.523    
       860  -693.44571     -693.44571      0.097788579   -1150.8012      16288.614    
       870  -693.45353     -693.45353      0.096413353   -1147.7649      16288.552    
       880  -693.46144     -693.46144      0.095009373   -1145.7178      16288.541    
       890  -693.46946     -693.46946      0.093565977   -1143           16288.503    
       900  -693.47748     -693.47748      0.092126397   -1143.872       16288.641    
       910  -693.48563     -693.48563      0.090623377   -1141.3919      16288.626    
       920  -693.49395     -693.49395      0.089059025   -1138.6931      16288.607    
       930  -693.50252     -693.50252      0.087417989   -1134.5331      16288.528    
       940  -693.5112      -693.5112       0.085766095   -1135.7502      16288.714    
       950  -693.52018     -693.52018      0.084011985   -1134.0622      16288.773    
       960  -693.52965     -693.52965      0.082103505   -1129.9956      16288.734    
       970  -693.53969     -693.53969      0.080026368   -1123.4983      16288.6      
       980  -693.55013     -693.55013      0.077879557   -1125.0115      16288.868    
       990  -693.56135     -693.56135      0.075518014   -1125.6661      16289.127    
      1000  -693.57438     -693.57438      0.072622831   -1118.5814      16289.075    
      1010  -693.59039     -693.59039      0.068900473   -1105.9765      16288.862    
      1020  -693.609       -693.609        0.064421729   -1102.7849      16289.226    
      1030  -693.63036     -693.63036      0.058844361   -1086.0471      16289.121    
      1040  -693.65389     -693.65389      0.052311717   -1084.07        16289.963    
      1050  -693.68695     -693.68695      0.041140974   -1035.9545      16289.402    
      1060  -693.6958      -693.6958       0.037795673   -1011.7766      16288.866    
      1070  -693.7116      -693.7116       0.032683501   -965.99725      16288.088    
      1080  -693.71494     -693.71494      0.032539945   -1049.6644      16292.46     
      1090  -693.7168      -693.7168       0.031831073   -1007.293       16290.664    
      1100  -693.72004     -693.72004      0.030900527   -1012.0611      16291.29     
      1110  -693.72198     -693.72198      0.030569551   -1038.1328      16292.795    
      1120  -693.72338     -693.72338      0.029864464   -989.85137      16290.68     
      1130  -693.72571     -693.72571      0.029321008   -995.5329       16291.283    
      1140  -693.72999     -693.72999      0.027854111   -976.07771      16290.982    
      1150  -693.73677     -693.73677      0.025598871   -947.84391      16290.718    
      1160  -693.73889     -693.73889      0.025571474   -985.90314      16292.935    
      1170  -693.74166     -693.74166      0.024705847   -980.30844      16293.189    
      1180  -693.7429      -693.7429       0.024140139   -966.28283      16292.76     
      1190  -693.74398     -693.74398      0.023731127   -954.39147      16292.412    
      1200  -693.7456      -693.7456       0.024075044   -1050.1176      16297.351    
      1210  -693.75526     -693.75526      0.020812793   -951.77048      16294.79     
      1220  -693.78456     -693.78456      0.015384467   -883.61538      16300.583    
      1230  -693.7967      -693.7967       0.01373311    -831.90709      16303.194    
      1240  -693.79852     -693.79852      0.013579501   -824.30805      16303.671    
      1250  -693.80852     -693.80852      0.012825177   -798.43689      16307.276    
Loop time of 9.30024 on 1 procs for 1250 steps with 552 atoms

99.7% CPU use with 1 MPI tasks x 1 OpenMP threads

Minimization stats:
  Stopping criterion = energy tolerance
  Energy initial, next-to-last, final = 
      -690.62669252693  -693.808517479883  -693.808524190678
  Force two-norm initial, final = 147.80747 0.1709628
  Force max component initial, final = 106.8788 0.079481527
  Final line search alpha, max atom move = 0.00046508902 3.6965985e-05
  Iterations, force evaluations = 1250 1293

MPI task timing breakdown:
Section |  min time  |  avg time  |  max time  |%varavg| %total
---------------------------------------------------------------
Pair    | 9.2507     | 9.2507     | 9.2507     |   0.0 | 99.47
Neigh   | 0          | 0          | 0          |   0.0 |  0.00
Comm    | 0.0064611  | 0.0064611  | 0.0064611  |   0.0 |  0.07
Output  | 0.0032011  | 0.0032011  | 0.0032011  |   0.0 |  0.03
Modify  | 0          | 0          | 0          |   0.0 |  0.00
Other   |            | 0.03989    |            |       |  0.43

Nlocal:            552 ave         552 max         552 min
Histogram: 1 0 0 0 0 0 0 0 0 0
Nghost:           1515 ave        1515 max        1515 min
Histogram: 1 0 0 0 0 0 0 0 0 0
Neighs:          28408 ave       28408 max       28408 min
Histogram: 1 0 0 0 0 0 0 0 0 0
FullNghs:        56816 ave       56816 max       56816 min
Histogram: 1 0 0 0 0 0 0 0 0 0

Total # of neighbors = 56816
Ave neighs/atom = 102.92754
Neighbor list builds = 0
Dangerous builds = 0
Total wall time: 0:00:09
