LAMMPS (2 Aug 2023 - Update 2)
OMP_NUM_THREADS environment is not set. Defaulting to 1 thread. (src/comm.cpp:98)
  using 1 OpenMP thread(s) per MPI task
Reading data file ...
  orthogonal box = (0 0 0) to (26.120978 8.787871 61.242016)
  1 by 1 by 1 MPI processor grid
  reading atoms ...
  552 atoms
  reading velocities ...
  552 velocities
  read_data CPU = 0.041 seconds
Neighbor list info ...
  update: every = 1 steps, delay = 0 steps, check = yes
  max neighbors/atom: 2000, page size: 100000
  master list distance cutoff = 8
  ghost atom cutoff = 8
  binsize = 4, bins = 7 3 16
  2 neighbor lists, perpetual/occasional/extra = 2 0 0
  (1) pair meam, perpetual
      attributes: full, newton on
      pair build: full/bin/atomonly
      stencil: full/bin/3d
      bin: standard
  (2) pair meam, perpetual, half/full from (1)
      attributes: half, newton on
      pair build: halffull/newton
      stencil: none
      bin: none
Setting up cg style minimization ...
  Unit style    : metal
  Current step  : 0
WARNING: Energy due to 3 extra global DOFs will be included in minimizer energies
 (src/min.cpp:228)
Per MPI rank memory allocation (min/avg/max) = 11.05 | 11.05 | 11.05 Mbytes
   Step         PotEng         TotEng          Fmax          Press          Volume    
         0  -705.08616     -705.08616      0.47789794    -12785.921      14057.969    
        10  -705.28774     -705.28774      0.48038073    -12155.689      14031.857    
        20  -705.47621     -705.47621      0.48284816    -11519.108      14005.858    
        30  -705.65149     -705.65149      0.48529872    -10876.381      13979.981    
        40  -705.81352     -705.81352      0.48773068    -10227.781      13954.235    
        50  -705.96224     -705.96224      0.49014184    -9573.6489      13928.634    
        60  -706.09762     -706.09762      0.49252991    -8914.4143      13903.192    
        70  -706.21963     -706.21963      0.49489177    -8250.633       13877.928    
        80  -706.32826     -706.32826      0.4972237     -7583.0276      13852.866    
        90  -706.42355     -706.42355      0.49952092    -6912.5437      13828.037    
       100  -706.50554     -706.50554      0.50177714    -6240.4688      13803.481    
       110  -706.57436     -706.57436      0.50398373    -5568.5976      13779.256    
       120  -706.63018     -706.63018      0.50612785    -4899.5711      13755.446    
       130  -706.67329     -706.67329      0.50818984    -4237.5077      13732.181    
       140  -706.70417     -706.70417      0.51013496    -3589.5163      13709.689    
       150  -706.72364     -706.72364      0.51189116    -2970.0163      13688.434    
       160  -706.73356     -706.73356      0.51324083    -2419.5294      13669.739    
       170  -706.83154     -706.83154      0.50527103    -2140.1922      13660.107    
       180  -706.85748     -706.85748      0.50282449    -2139.3347      13660.041    
       190  -706.88222     -706.88222      0.50042911    -2141.7546      13660.095    
       200  -706.9069      -706.9069       0.49797692    -2143.7219      13660.14     
       210  -706.93254     -706.93254      0.49535989    -2145.2708      13660.178    
       220  -706.96043     -706.96043      0.49243032    -2146.3532      13660.208    
       230  -706.99283     -706.99283      0.48891198    -2146.7794      13660.227    
       240  -707.03583     -707.03583      0.48404113    -2145.8798      13660.225    
       250  -707.16013     -707.16013      0.46853331    -2133.4593      13660.036    
       260  -707.21756     -707.21756      0.46044291    -2140.8224      13660.472    
       270  -707.23734     -707.23734      0.45751392    -2142.3657      13660.602    
       280  -707.25551     -707.25551      0.4547616     -2140.2545      13660.609    
       290  -707.27285     -707.27285      0.45207439    -2138.0146      13660.614    
       300  -707.28949     -707.28949      0.44943512    -2135.722       13660.619    
       310  -707.30555     -707.30555      0.44683182    -2133.3798      13660.624    
       320  -707.3211      -707.3211       0.44425567    -2130.9939      13660.63     
       330  -707.3362      -707.3362       0.44169995    -2128.568       13660.636    
       340  -707.35091     -707.35091      0.4391593     -2126.1066      13660.643    
       350  -707.36527     -707.36527      0.43662967    -2123.6147      13660.651    
       360  -707.3793      -707.3793       0.43410777    -2121.0975      13660.66     
       370  -707.39303     -707.39303      0.43159093    -2118.5604      13660.67     
       380  -707.40648     -707.40648      0.42907706    -2116.0088      13660.681    
       390  -707.41968     -707.41968      0.4265644     -2113.4477      13660.694    
       400  -707.43263     -707.43263      0.42405155    -2110.8818      13660.708    
       410  -707.44536     -707.44536      0.42153729    -2108.3151      13660.724    
       420  -707.45786     -707.45786      0.41902061    -2105.7516      13660.741    
       430  -707.47017     -707.47017      0.41650073    -2103.1947      13660.761    
       440  -707.48227     -707.48227      0.41397694    -2100.6479      13660.782    
       450  -707.49419     -707.49419      0.41144851    -2098.1149      13660.804    
       460  -707.50592     -707.50592      0.408915      -2095.5992      13660.829    
       470  -707.51749     -707.51749      0.40637602    -2093.1027      13660.856    
       480  -707.52888     -707.52888      0.40383115    -2090.6275      13660.885    
       490  -707.54012     -707.54012      0.4012801     -2088.175       13660.916    
       500  -707.5512      -707.5512       0.39872263    -2085.7462      13660.948    
       510  -707.56212     -707.56212      0.39615845    -2083.3413      13660.983    
       520  -707.57291     -707.57291      0.39358726    -2080.961       13661.02     
       530  -707.58355     -707.58355      0.39100889    -2078.6058      13661.058    
       540  -707.59405     -707.59405      0.38842317    -2076.276       13661.099    
       550  -707.60443     -707.60443      0.3858299     -2073.9713      13661.141    
       560  -707.61467     -707.61467      0.3832288     -2071.6918      13661.185    
       570  -707.62479     -707.62479      0.38061967    -2069.4373      13661.231    
       580  -707.63479     -707.63479      0.37800232    -2067.2075      13661.279    
       590  -707.64467     -707.64467      0.37537651    -2065.0021      13661.328    
       600  -707.65443     -707.65443      0.37274204    -2062.8205      13661.379    
       610  -707.66409     -707.66409      0.37009875    -2060.6619      13661.432    
       620  -707.67364     -707.67364      0.36744633    -2058.5257      13661.486    
       630  -707.68308     -707.68308      0.36478444    -2056.4113      13661.542    
       640  -707.69243     -707.69243      0.3621129     -2054.3184      13661.599    
       650  -707.70167     -707.70167      0.35943148    -2052.2462      13661.658    
       660  -707.71082     -707.71082      0.35673984    -2050.1934      13661.719    
       670  -707.71988     -707.71988      0.35403766    -2048.159       13661.781    
       680  -707.72884     -707.72884      0.35132451    -2046.1421      13661.844    
       690  -707.73772     -707.73772      0.34860002    -2044.1419      13661.909    
       700  -707.74652     -707.74652      0.34586378    -2042.1574      13661.975    
       710  -707.75523     -707.75523      0.3431154     -2040.1877      13662.042    
       720  -707.76387     -707.76387      0.34035449    -2038.232       13662.111    
       730  -707.77243     -707.77243      0.33758045    -2036.2895      13662.181    
       740  -707.78091     -707.78091      0.33479281    -2034.3593      13662.252    
       750  -707.78932     -707.78932      0.3319911     -2032.4405      13662.325    
       760  -707.79767     -707.79767      0.32917479    -2030.5323      13662.399    
       770  -707.80594     -707.80594      0.32634328    -2028.6332      13662.474    
       780  -707.81416     -707.81416      0.32349602    -2026.7421      13662.551    
       790  -707.82231     -707.82231      0.32063251    -2024.8579      13662.629    
       800  -707.8304      -707.8304       0.31775216    -2022.9809      13662.708    
       810  -707.83844     -707.83844      0.31485405    -2021.1088      13662.789    
       820  -707.84642     -707.84642      0.31193751    -2019.2408      13662.87     
       830  -707.85434     -707.85434      0.30900162    -2017.376       13662.953    
       840  -707.86222     -707.86222      0.30604564    -2015.5133      13663.038    
       850  -707.87005     -707.87005      0.3030688     -2013.6516      13663.123    
       860  -707.87784     -707.87784      0.30007005    -2011.7899      13663.21     
       870  -707.88559     -707.88559      0.29704842    -2009.9272      13663.299    
       880  -707.89329     -707.89329      0.29400287    -2008.0625      13663.389    
       890  -707.90096     -707.90096      0.29093222    -2006.1943      13663.48     
       900  -707.90859     -707.90859      0.28783533    -2004.3212      13663.573    
       910  -707.91619     -707.91619      0.28471105    -2002.4417      13663.667    
       920  -707.92376     -707.92376      0.28155788    -2000.5539      13663.763    
       930  -707.93131     -707.93131      0.27837423    -1998.6561      13663.861    
       940  -707.93883     -707.93883      0.27515854    -1996.7465      13663.96     
       950  -707.94633     -707.94633      0.27190903    -1994.8233      13664.061    
       960  -707.95382     -707.95382      0.26862381    -1992.8844      13664.164    
       970  -707.96129     -707.96129      0.26530085    -1990.9279      13664.268    
       980  -707.96876     -707.96876      0.26193772    -1988.9511      13664.375    
       990  -707.97622     -707.97622      0.25853179    -1986.9513      13664.484    
      1000  -707.98369     -707.98369      0.25508074    -1984.9247      13664.594    
      1010  -707.99115     -707.99115      0.25158335    -1982.8639      13664.707    
      1020  -707.99863     -707.99863      0.24803786    -1980.7573      13664.822    
      1030  -708.00613     -708.00613      0.2444425     -1978.5963      13664.939    
      1040  -708.01365     -708.01365      0.24079479    -1976.3728      13665.058    
      1050  -708.02121     -708.02121      0.23709178    -1974.0796      13665.18     
      1060  -708.0288      -708.0288       0.23332964    -1971.7097      13665.304    
      1070  -708.03645     -708.03645      0.22950373    -1969.2557      13665.431    
      1080  -708.04416     -708.04416      0.22560857    -1966.7097      13665.561    
      1090  -708.05194     -708.05194      0.22163707    -1964.0624      13665.695    
      1100  -708.05983     -708.05983      0.2175808     -1961.3035      13665.833    
      1110  -708.06782     -708.06782      0.21342913    -1958.4209      13665.976    
      1120  -708.07595     -708.07595      0.20916914    -1955.4003      13666.125    
      1130  -708.08425     -708.08425      0.2047848     -1952.2241      13666.28     
      1140  -708.09275     -708.09275      0.20025568    -1948.8698      13666.444    
      1150  -708.10149     -708.10149      0.19555623    -1945.3106      13666.616    
      1160  -708.11052     -708.11052      0.1906533     -1941.5125      13666.8      
      1170  -708.11992     -708.11992      0.18550337    -1937.4308      13666.998    
      1180  -708.12977     -708.12977      0.18004866    -1933.0067      13667.213    
      1190  -708.1402      -708.1402       0.17420846    -1928.1616      13667.45     
      1200  -708.15137     -708.15137      0.16786835    -1922.7856      13667.717    
      1210  -708.1635      -708.1635       0.16085804    -1916.7141      13668.021    
      1220  -708.17692     -708.17692      0.15291323    -1909.8276      13668.383    
      1230  -708.19223     -708.19223      0.14462468    -1898.7406      13668.729    
      1240  -708.20203     -708.20203      0.13967538    -1911.0764      13669.629    
      1250  -708.21715     -708.21715      0.13169823    -1909.2086      13670.356    
      1260  -708.24195     -708.24195      0.11697102    -1900.1737      13671.47     
      1270  -708.2545      -708.2545       0.10900384    -1864.4789      13671.046    
      1280  -708.26012     -708.26012      0.10547575    -1843.8633      13670.709    
      1290  -708.26745     -708.26745      0.10088974    -1835.2227      13670.894    
      1300  -708.27196     -708.27196      0.098008774   -1833.4992      13671.136    
      1310  -708.276       -708.276        0.095317998   -1837.0495      13671.531    
      1320  -708.28071     -708.28071      0.092063963   -1863.4552      13672.748    
      1330  -708.30497     -708.30497      0.073915895   -1864.0161      13674.712    
      1340  -708.30795     -708.30795      0.072010478   -1775.6787      13672.028    
      1350  -708.31011     -708.31011      0.070452952   -1830.2297      13674.065    
      1360  -708.31353     -708.31353      0.068182201   -1805.3288      13673.567    
      1370  -708.31587     -708.31587      0.066489089   -1739.1121      13671.592    
      1380  -708.31791     -708.31791      0.065141392   -1785.8918      13673.366    
      1390  -708.31971     -708.31971      0.063607868   -1904.0721      13677.538    
      1400  -708.32164     -708.32164      0.062571289   -1787.7511      13673.828    
      1410  -708.32443     -708.32443      0.060629202   -1795.4084      13674.395    
      1420  -708.3273      -708.3273       0.058733783   -1694.8842      13671.37     
      1430  -708.32908     -708.32908      0.05733046    -1810.9129      13675.453    
      1440  -708.3322      -708.3322       0.055056417   -1792.1079      13675.202    
      1450  -708.3333      -708.3333       0.054512832   -1746.0522      13673.793    
      1460  -708.3354      -708.3354       0.053102038   -1697.9812      13672.458    
      1470  -708.33808     -708.33808      0.050901526   -1886.9526      13679.15     
      1480  -708.34073     -708.34073      0.049220616   -1815.5711      13677.089    
      1490  -708.34393     -708.34393      0.047492978   -1754.7822      13675.489    
      1500  -708.3467      -708.3467       0.046255998   -1656.0186      13672.597    
      1510  -708.34962     -708.34962      0.045186627   -1766.0621      13676.694    
      1520  -708.35115     -708.35115      0.044513273   -1741.1564      13676.093    
      1530  -708.35244     -708.35244      0.043971004   -1762.3958      13677.006    
      1540  -708.35359     -708.35359      0.043465706   -1765.1284      13677.28     
      1550  -708.365       -708.365        0.038072483   -1727.6587      13677.948    
      1560  -708.37        -708.37         0.035587921   -1708.7369      13678.251    
      1570  -708.3712      -708.3712       0.035025158   -1745.3584      13679.717    
      1580  -708.37201     -708.37201      0.034629502   -1809.2717      13682.042    
      1590  -708.37375     -708.37375      0.033760939   -1723.324       13679.488    
      1600  -708.40639     -708.40639      0.021905625   -1666.7937      13685.538    
      1610  -708.42139     -708.42139      0.017621644   -1547.6686      13686.029    
      1620  -708.43449     -708.43449      0.015199227   -1614.0581      13692.389    
      1630  -708.43586     -708.43586      0.01467903    -1549.0248      13690.601    
      1640  -708.44738     -708.44738      0.012685506   -1488.8124      13692.303    
      1649  -708.45956     -708.45956      0.011159914   -1468.4058      13695.658    
Loop time of 13.2075 on 1 procs for 1649 steps with 552 atoms

99.6% CPU use with 1 MPI tasks x 1 OpenMP threads

Minimization stats:
  Stopping criterion = energy tolerance
  Energy initial, next-to-last, final = 
     -705.086161923785  -708.459552305049  -708.459556788316
  Force two-norm initial, final = 157.65407 0.20076785
  Force max component initial, final = 119.44728 0.1493407
  Final line search alpha, max atom move = 0.00086591257 0.00012931599
  Iterations, force evaluations = 1649 1719

MPI task timing breakdown:
Section |  min time  |  avg time  |  max time  |%varavg| %total
---------------------------------------------------------------
Pair    | 13.138     | 13.138     | 13.138     |   0.0 | 99.48
Neigh   | 0          | 0          | 0          |   0.0 |  0.00
Comm    | 0.010465   | 0.010465   | 0.010465   |   0.0 |  0.08
Output  | 0.003621   | 0.003621   | 0.003621   |   0.0 |  0.03
Modify  | 0          | 0          | 0          |   0.0 |  0.00
Other   |            | 0.05515    |            |       |  0.42

Nlocal:            552 ave         552 max         552 min
Histogram: 1 0 0 0 0 0 0 0 0 0
Nghost:           1889 ave        1889 max        1889 min
Histogram: 1 0 0 0 0 0 0 0 0 0
Neighs:          30074 ave       30074 max       30074 min
Histogram: 1 0 0 0 0 0 0 0 0 0
FullNghs:        60148 ave       60148 max       60148 min
Histogram: 1 0 0 0 0 0 0 0 0 0

Total # of neighbors = 60148
Ave neighs/atom = 108.96377
Neighbor list builds = 0
Dangerous builds = 0
Total wall time: 0:00:13
