LAMMPS (2 Aug 2023 - Update 2)
  using 1 OpenMP thread(s) per MPI task
Reading data file ...
  triclinic box = (0 0 0) to (8.552 8.552 8.552) with tilt (5.2365897e-16 5.2365897e-16 9.4946273e-16)
  1 by 1 by 1 MPI processor grid
  reading atom labelmap ...
  reading atoms ...
  39 atoms
  read_data CPU = 0.002 seconds
Neighbor list info ...
  update: every = 1 steps, delay = 0 steps, check = yes
  max neighbors/atom: 2000, page size: 100000
  master list distance cutoff = 8
  ghost atom cutoff = 8
  binsize = 4, bins = 3 3 3
  2 neighbor lists, perpetual/occasional/extra = 2 0 0
  (1) pair meam/c, perpetual
      attributes: full, newton on
      pair build: full/bin/atomonly
      stencil: full/bin/3d
      bin: standard
  (2) pair meam/c, perpetual, half/full from (1)
      attributes: half, newton on
      pair build: halffull/newton
      stencil: none
      bin: none
Setting up cg style minimization ...
  Unit style    : metal
  Current step  : 0
WARNING: Energy due to 3 extra global DOFs will be included in minimizer energies
 (src/min.cpp:228)
Per MPI rank memory allocation (min/avg/max) = 10.01 | 10.01 | 10.01 Mbytes
   Step         PotEng          Fmax          Fnorm     
         0  -44.793675      0.87644243     2.7444472    
        10  -45.182687      0.75212989     2.3678619    
        20  -45.335848      0.63348821     2.0239273    
        30  -45.503222      0.40883512     1.4855919    
        40  -45.654129      0.25878168     0.82666345   
        50  -45.723734      0.098451659    0.27037651   
        60  -45.735697      0.01346174     0.023090692  
        70  -45.735856      0.0028358285   0.0086000912 
        80  -45.735981      0.0075770778   0.023883514  
        90  -45.736307      0.0063487332   0.015938356  
       100  -45.738208      0.035426189    0.13598049   
       110  -45.744293      0.059228441    0.13979615   
       120  -45.752112      0.034122634    0.087222699  
       130  -45.756264      0.035905107    0.088646689  
       140  -45.757994      0.010835565    0.025858624  
       150  -45.758418      0.0075198145   0.018173608  
       160  -45.75852       0.004258407    0.011002695  
       170  -45.758546      0.001652704    0.0043094039 
       180  -45.758552      0.0010805821   0.0027223648 
       190  -45.758554      0.0002945336   0.00076063627
       200  -45.758554      0.00020231865  0.00069000151
       210  -45.758555      0.00012439066  0.00044447751
       220  -45.758555      5.1127772e-05  0.00015604129
       230  -45.758555      4.5566147e-05  0.00011445926
       237  -45.758555      2.9074555e-05  7.3790411e-05
Loop time of 0.362739 on 1 procs for 237 steps with 39 atoms

99.2% CPU use with 1 MPI tasks x 1 OpenMP threads

Minimization stats:
  Stopping criterion = energy tolerance
  Energy initial, next-to-last, final = 
     -44.7936753411582  -45.7585545530002  -45.7585545530192
  Force two-norm initial, final = 30.346501 0.00011754103
  Force max component initial, final = 17.651053 6.2431992e-05
  Final line search alpha, max atom move = 1 6.2431992e-05
  Iterations, force evaluations = 237 416

MPI task timing breakdown:
Section |  min time  |  avg time  |  max time  |%varavg| %total
---------------------------------------------------------------
Pair    | 0.35623    | 0.35623    | 0.35623    |   0.0 | 98.21
Neigh   | 0          | 0          | 0          |   0.0 |  0.00
Comm    | 0.0014447  | 0.0014447  | 0.0014447  |   0.0 |  0.40
Output  | 9.4936e-05 | 9.4936e-05 | 9.4936e-05 |   0.0 |  0.03
Modify  | 0          | 0          | 0          |   0.0 |  0.00
Other   |            | 0.004967   |            |       |  1.37

Nlocal:             39 ave          39 max          39 min
Histogram: 1 0 0 0 0 0 0 0 0 0
Nghost:            816 ave         816 max         816 min
Histogram: 1 0 0 0 0 0 0 0 0 0
Neighs:           2621 ave        2621 max        2621 min
Histogram: 1 0 0 0 0 0 0 0 0 0
FullNghs:         5242 ave        5242 max        5242 min
Histogram: 1 0 0 0 0 0 0 0 0 0

Total # of neighbors = 5242
Ave neighs/atom = 134.41026
Neighbor list builds = 0
Dangerous builds = 0
System init for write_data ...
Total wall time: 0:00:00
