LAMMPS (2 Aug 2023 - Update 2)
  using 1 OpenMP thread(s) per MPI task
Reading data file ...
  triclinic box = (0 0 0) to (8.552 8.552 8.552) with tilt (5.2365897e-16 5.2365897e-16 9.4946273e-16)
  1 by 1 by 1 MPI processor grid
  reading atom labelmap ...
  reading atoms ...
  39 atoms
  read_data CPU = 0.002 seconds
Neighbor list info ...
  update: every = 1 steps, delay = 0 steps, check = yes
  max neighbors/atom: 2000, page size: 100000
  master list distance cutoff = 8
  ghost atom cutoff = 8
  binsize = 4, bins = 3 3 3
  2 neighbor lists, perpetual/occasional/extra = 2 0 0
  (1) pair meam/c, perpetual
      attributes: full, newton on
      pair build: full/bin/atomonly
      stencil: full/bin/3d
      bin: standard
  (2) pair meam/c, perpetual, half/full from (1)
      attributes: half, newton on
      pair build: halffull/newton
      stencil: none
      bin: none
Setting up cg style minimization ...
  Unit style    : metal
  Current step  : 0
WARNING: Energy due to 3 extra global DOFs will be included in minimizer energies
 (src/min.cpp:228)
Per MPI rank memory allocation (min/avg/max) = 10.01 | 10.01 | 10.01 Mbytes
   Step         PotEng          Fmax          Fnorm     
         0  -44.819591      0.6906833      2.6838012    
        10  -45.202406      0.59357364     2.3227757    
        20  -45.352305      0.49882569     1.9930034    
        30  -45.550436      0.3662106      1.3006441    
        40  -45.65137       0.26248124     0.83448587   
        50  -45.720891      0.11503014     0.31904339   
        60  -45.735329      0.016499628    0.061664834  
        70  -45.7358        0.004579311    0.0086455583 
        80  -45.735825      0.0017646774   0.0061078319 
        90  -45.735882      0.0067289045   0.024827382  
       100  -45.737295      0.076071092    0.21791114   
       110  -45.746999      0.03897476     0.084570799  
       120  -45.751857      0.039383097    0.1547528    
       130  -45.756141      0.019770174    0.072288435  
       140  -45.757956      0.015029534    0.048382332  
       150  -45.75851       0.0047985962   0.013152173  
       160  -45.758541      0.0012908466   0.0040868958 
       170  -45.75855       0.001303489    0.0029662616 
       180  -45.758553      0.00069967577  0.0018706923 
       190  -45.758554      0.00040189339  0.0010455642 
       200  -45.758554      0.00018391094  0.00056477578
       210  -45.758554      0.00016894143  0.00047194951
       220  -45.758555      0.00010154369  0.00035328579
       230  -45.758555      4.1689816e-05  0.00013381066
       240  -45.758555      3.7702177e-05  9.1444787e-05
       250  -45.758555      2.7666472e-05  8.2786682e-05
Loop time of 0.380655 on 1 procs for 250 steps with 39 atoms

98.7% CPU use with 1 MPI tasks x 1 OpenMP threads

Minimization stats:
  Stopping criterion = energy tolerance
  Energy initial, next-to-last, final = 
      -44.819590948861  -45.7585545526469   -45.758554552677
  Force two-norm initial, final = 30.068752 0.00010426299
  Force max component initial, final = 17.586271 5.4462077e-05
  Final line search alpha, max atom move = 1 5.4462077e-05
  Iterations, force evaluations = 250 439

MPI task timing breakdown:
Section |  min time  |  avg time  |  max time  |%varavg| %total
---------------------------------------------------------------
Pair    | 0.37376    | 0.37376    | 0.37376    |   0.0 | 98.19
Neigh   | 0          | 0          | 0          |   0.0 |  0.00
Comm    | 0.0014818  | 0.0014818  | 0.0014818  |   0.0 |  0.39
Output  | 9.8031e-05 | 9.8031e-05 | 9.8031e-05 |   0.0 |  0.03
Modify  | 0          | 0          | 0          |   0.0 |  0.00
Other   |            | 0.005316   |            |       |  1.40

Nlocal:             39 ave          39 max          39 min
Histogram: 1 0 0 0 0 0 0 0 0 0
Nghost:            816 ave         816 max         816 min
Histogram: 1 0 0 0 0 0 0 0 0 0
Neighs:           2622 ave        2622 max        2622 min
Histogram: 1 0 0 0 0 0 0 0 0 0
FullNghs:         5244 ave        5244 max        5244 min
Histogram: 1 0 0 0 0 0 0 0 0 0

Total # of neighbors = 5244
Ave neighs/atom = 134.46154
Neighbor list builds = 0
Dangerous builds = 0
System init for write_data ...
Total wall time: 0:00:00
