LAMMPS (2 Aug 2023 - Update 2)
  using 1 OpenMP thread(s) per MPI task
Reading data file ...
  triclinic box = (0 0 0) to (8.552 8.552 8.552) with tilt (5.2365897e-16 5.2365897e-16 9.4946273e-16)
  1 by 1 by 1 MPI processor grid
  reading atom labelmap ...
  reading atoms ...
  39 atoms
  read_data CPU = 0.002 seconds
Neighbor list info ...
  update: every = 1 steps, delay = 0 steps, check = yes
  max neighbors/atom: 2000, page size: 100000
  master list distance cutoff = 8
  ghost atom cutoff = 8
  binsize = 4, bins = 3 3 3
  2 neighbor lists, perpetual/occasional/extra = 2 0 0
  (1) pair meam/c, perpetual
      attributes: full, newton on
      pair build: full/bin/atomonly
      stencil: full/bin/3d
      bin: standard
  (2) pair meam/c, perpetual, half/full from (1)
      attributes: half, newton on
      pair build: halffull/newton
      stencil: none
      bin: none
Setting up cg style minimization ...
  Unit style    : metal
  Current step  : 0
WARNING: Energy due to 3 extra global DOFs will be included in minimizer energies
 (src/min.cpp:228)
Per MPI rank memory allocation (min/avg/max) = 10.01 | 10.01 | 10.01 Mbytes
   Step         PotEng          Fmax          Fnorm     
         0  -44.788434      1.3114313      2.9485562    
        10  -45.177912      1.1512007      2.5486887    
        20  -45.331405      0.98564945     2.1739247    
        30  -45.527002      0.401429       1.4160646    
        40  -45.644375      0.27541895     0.88598794   
        50  -45.717065      0.13803237     0.36903865   
        60  -45.733404      0.046110531    0.11827686   
        70  -45.735779      0.0017394745   0.0076139847 
        80  -45.735793      0.00051714848  0.0017464387 
        90  -45.735795      0.00041614794  0.0010175121 
       100  -45.735795      0.00039381808  0.00069059696
       110  -45.735795      0.00013210511  0.00027338931
       120  -45.735795      0.00027181377  0.00061611739
       130  -45.735795      0.00013187314  0.00031632103
       140  -45.735795      5.6977454e-05  0.0001711156 
       150  -45.735796      0.00015976945  0.00044024138
       160  -45.735796      8.9509932e-05  0.00024246417
       170  -45.735796      4.0303627e-05  9.0271119e-05
       173  -45.735796      3.5818239e-05  7.3847503e-05
Loop time of 0.260165 on 1 procs for 173 steps with 39 atoms

98.8% CPU use with 1 MPI tasks x 1 OpenMP threads

Minimization stats:
  Stopping criterion = energy tolerance
  Energy initial, next-to-last, final = 
     -44.7884343658765  -45.7357955317994  -45.7357955318413
  Force two-norm initial, final = 30.291964 0.00018220568
  Force max component initial, final = 17.549752 0.00010688358
  Final line search alpha, max atom move = 1 0.00010688358
  Iterations, force evaluations = 173 287

MPI task timing breakdown:
Section |  min time  |  avg time  |  max time  |%varavg| %total
---------------------------------------------------------------
Pair    | 0.25562    | 0.25562    | 0.25562    |   0.0 | 98.25
Neigh   | 0          | 0          | 0          |   0.0 |  0.00
Comm    | 0.00096603 | 0.00096603 | 0.00096603 |   0.0 |  0.37
Output  | 9.1571e-05 | 9.1571e-05 | 9.1571e-05 |   0.0 |  0.04
Modify  | 0          | 0          | 0          |   0.0 |  0.00
Other   |            | 0.003489   |            |       |  1.34

Nlocal:             39 ave          39 max          39 min
Histogram: 1 0 0 0 0 0 0 0 0 0
Nghost:            816 ave         816 max         816 min
Histogram: 1 0 0 0 0 0 0 0 0 0
Neighs:           2622 ave        2622 max        2622 min
Histogram: 1 0 0 0 0 0 0 0 0 0
FullNghs:         5244 ave        5244 max        5244 min
Histogram: 1 0 0 0 0 0 0 0 0 0

Total # of neighbors = 5244
Ave neighs/atom = 134.46154
Neighbor list builds = 0
Dangerous builds = 0
System init for write_data ...
Total wall time: 0:00:00
