#

39 atoms
2 atom types

0.0 8.552 xlo xhi
0.0 8.552 ylo yhi
0.0 8.552 zlo zhi

5.236589713154082e-16 5.236589713154082e-16 9.494627306594338e-16 xy xz yz


Atom Type Labels

1 H
2 He


Atoms

1 H 4.276 2.73664 0.0
2 H 4.276 5.815359999999999 0.0
3 H 4.2940035647863474e-16 4.276 2.73664
4 H 6.179175861521817e-16 4.276000000000001 5.815359999999999
5 H 2.7366400000000004 4.747313653297169e-16 4.276
6 H 5.815359999999999 4.747313653297169e-16 4.276
7 He 4.276 4.276000000000001 4.276
8 He 1.230598582591209e-16 2.0097199999999997 0.0
9 He 4.0059911305628726e-16 6.54228 0.0
10 He 1.230598582591209e-16 2.2312374170496693e-16 2.0097199999999997
11 He 4.0059911305628726e-16 7.263389889544669e-16 6.54228
12 He 2.0097199999999997 0.0 0.0
13 He 6.54228 0.0 0.0
14 He 3.4561492106816945e-16 1.3683200000000004 4.276
15 He 7.01703021562647e-16 7.183680000000001 4.276
16 He 4.276 1.5191403690550942e-16 1.36832
17 He 4.276 7.975486937539244e-16 7.18368
18 He 1.3683200000000002 4.276 0.0
19 He 7.18368 4.276 0.0
20 He 6.653456 1.8985440000000002 1.898544
21 He 1.8985440000000007 1.8985440000000007 6.653456
22 He 1.8985440000000007 6.653456 1.898544
23 He 6.653456 6.653456000000001 6.653456
24 He 1.898544000000001 6.653456000000001 6.653456
25 He 6.653456 6.653456 1.898544
26 He 6.653456 1.8985440000000007 6.653456
27 He 1.8985440000000005 1.8985440000000002 1.898544
28 He 5.618664 4.276 2.0781359999999998
29 He 2.933336000000001 4.276000000000001 6.473864
30 He 2.9333360000000006 4.276 2.0781359999999998
31 He 5.618664 4.276000000000001 6.473864
32 He 2.0781360000000006 5.618664000000001 4.276
33 He 6.473864 2.9333360000000006 4.276
34 He 2.078136 2.9333360000000006 4.276
35 He 6.473864 5.618664000000001 4.276
36 He 4.276 2.078136 5.618664
37 He 4.276 6.473864 2.933336
38 He 4.276 2.078136 2.933336
39 He 4.276 6.473864000000001 5.618664