(written by ASE)

110 atoms
2 atom types

0.0      25.960000000000001  xlo xhi
0.0      5.2400000000000002  ylo yhi
0.0      13.941506981672648  zlo zhi
                      0     -3.0907576870361071                       0  xy xz yz

Atoms # atomic

     1   1      15.984378261113568                       0      9.0480380311055484
     2   1      6.8848640518503261                       0      4.8934689505670992
     3   1      3.0043782611135668      2.6200000000000001      9.0480380311055484
     4   1      19.864864051850326      2.6200000000000001      4.8934689505670983
     5   1      19.266455530502483                       0      9.4662832405557271
     6   1      3.6027867824614099                       0      4.4752237411169196
     7   1       6.286455530502483      2.6200000000000001      9.4662832405557289
     8   1      16.582786782461412      2.6200000000000001      4.4752237411169187
     9   1      20.868678305179866                       0      3.5272012663631807
    10   1      2.0005640077840279                       0      10.414305715309466
    11   1       7.888678305179865      2.6200000000000001      3.5272012663631811
    12   1      14.980564007784027      2.6200000000000001      10.414305715309466
    13   1      15.259414194574475                       0      5.9948480021192383
    14   1      7.6098281183894194                       0      7.9466589795534084
    15   1      2.2794141945744739      2.6200000000000001      5.9948480021192392
    16   1      20.589828118389416      2.6200000000000001      7.9466589795534075
    17   1      19.854204143163795                       0      12.435824227652001
    18   1      3.0150381698001003                       0      1.5056827540206454
    19   1      6.8742041431637917      2.6200000000000001      12.435824227652002
    20   1        15.9950381698001      2.6200000000000001       1.505682754020645
    21   1      24.256452393752106                       0      3.8199729129783058
    22   1     -1.3872100807882137                       0       10.12153406869434
    23   1      11.276452393752107      2.6200000000000001      3.8199729129783067
    24   1      11.592789919211787      2.6200000000000001       10.12153406869434
    25   1      12.295038440559633                       0      5.5487197787057134
    26   1      10.574203872404262                       0      8.3927872029669341
    27   1    -0.68496155944036885      2.6200000000000001      5.5487197787057143
    28   1      23.554203872404262      2.6200000000000001      8.3927872029669324
    29   1      14.274897419457449                       0     0.59948480021192374
    30   1      8.5943448935064435                       0      13.342022181460724
    31   1      1.2948974194574485      2.6200000000000001      0.5994848002119243
    32   1      21.574344893506446      2.6200000000000001      13.342022181460722
    33   1      25.452516504357497                       0      1.3523261772222466
    34   1     -2.5832741913936053                       0        12.5891808044504
    35   1        12.4725165043575      2.6200000000000001      1.3523261772222472
    36   1      10.396725808606396      2.6200000000000001        12.5891808044504
    37   1       20.35943257319817                       0     0.32065466057847175
    38   1      2.5098097397657235                       0      13.620852321094175
    39   1      7.3794325731981703      2.6200000000000001     0.32065466057847242
    40   1      15.489809739765724      2.6200000000000001      13.620852321094175
    41   2     -1.5453788435180535                       0      6.9707534908363238
    42   2      11.434621156481947      2.6200000000000001      6.9707534908363229
    43   2      17.924621156481944      1.3100000000000001      6.9707534908363229
    44   2      17.924621156481944      3.9300000000000002      6.9707534908363229
    45   2      4.9446211564819462      3.9300000000000002      6.9707534908363229
    46   2      4.9446211564819462      1.3100000000000001      6.9707534908363229
    47   2      22.082522206961663                       0      8.2394306261685344
    48   2      0.7867201060022323                       0      5.7020763555041114
    49   2      9.1025222069616589      2.6200000000000001      8.2394306261685362
    50   2      13.766720106002232      2.6200000000000001      5.7020763555041105
    51   2      20.155336160154139                       0      6.5106837604411263
    52   2      2.7139061528097557                       0      7.4308232212315204
    53   2      7.1753361601541377      2.6200000000000001      6.5106837604411272
    54   2      15.693906152809756      2.6200000000000001      7.4308232212315195
    55   2      18.254110113346616                       0      4.7819368947137182
    56   2      4.6151321996172765                       0      9.1595700869589276
    57   2      5.2741101133466159      2.6200000000000001      4.7819368947137191
    58   2      17.595132199617279      2.6200000000000001      9.1595700869589276
    59   2      15.170286873774877                       0      12.017579018201822
    60   2      7.6989554391890165                       0      1.9239279634708251
    61   2      2.1902868737748769      2.6200000000000001      12.017579018201822
    62   2      20.678955439189018      2.6200000000000001      1.9239279634708244
    63   2        13.3073838577155                       0      10.233066124547722
    64   2      9.5618584552483963                       0      3.7084408571249234
    65   2     0.32738385771549811      2.6200000000000001      10.233066124547722
    66   2      22.541858455248391      2.6200000000000001       3.708440857124923
    67   2      16.241628612661309                       0      2.9695409870962743
    68   2      6.6276137003025823                       0      10.971965994576372
    69   2       3.261628612661311      2.6200000000000001      2.9695409870962752
    70   2      19.607613700302586      2.6200000000000001      10.971965994576371
    71   2      17.288114238640773                       0     0.47401123737687118
    72   2      5.5811280743231215                       0      13.467495744295775
    73   2      4.3081142386407718      2.6200000000000001     0.47401123737687179
    74   2      18.561128074323122      2.6200000000000001      13.467495744295773
    75   2      10.984557181256323                       0      11.459918738934917
    76   2       11.88468513170757                       0      2.4815882427377303
    77   2     -1.9954428187436786      2.6200000000000001      11.459918738934917
    78   2      24.864685131707571      2.6200000000000001      2.4815882427377294
    79   2      21.818550219348843      1.3100000000000001       10.48401325021783
    80   2      21.818550219348843      3.9300000000000002       10.48401325021783
    81   2      1.0506920936150457      3.9300000000000002      3.4574937314548162
    82   2      1.0506920936150457      1.3100000000000001      3.4574937314548162
    83   2      8.8385502193488481      3.9300000000000002      10.484013250217831
    84   2      8.8385502193488481      1.3100000000000001      10.484013250217831
    85   2      14.030692093615047      1.3100000000000001      3.4574937314548153
    86   2      14.030692093615047      3.9300000000000002      3.4574937314548153
    87   2      17.381223392821141      1.3100000000000001      11.529626273843279
    88   2      17.381223392821141      3.9300000000000002      11.529626273843279
    89   2      5.4880189201427543      3.9300000000000002      2.4118807078293676
    90   2      5.4880189201427543      1.3100000000000001      2.4118807078293676
    91   2      4.4012233928211399      3.9300000000000002      11.529626273843279
    92   2      4.4012233928211399      1.3100000000000001      11.529626273843279
    93   2      18.468018920142754      1.3100000000000001      2.4118807078293671
    94   2      18.468018920142754      3.9300000000000002      2.4118807078293671
    95   2       22.84106271592232      1.3100000000000001      1.4220337121306086
    96   2       22.84106271592232      3.9300000000000002      1.4220337121306086
    97   2    0.028179597041574873      3.9300000000000002      12.519473269542038
    98   2    0.028179597041574873      1.3100000000000001      12.519473269542038
    99   2      9.8610627159223174      3.9300000000000002      1.4220337121306093
   100   2      9.8610627159223174      1.3100000000000001      1.4220337121306093
   101   2      13.008179597041575      1.3100000000000001      12.519473269542038
   102   2      13.008179597041575      3.9300000000000002      12.519473269542038
   103   2      22.395323436887438      1.3100000000000001      6.0087895091009109
   104   2      22.395323436887438      3.9300000000000002      6.0087895091009109
   105   2     0.47391887607645483      3.9300000000000002      7.9327174725717358
   106   2     0.47391887607645483      1.3100000000000001      7.9327174725717358
   107   2       9.415323436887439      3.9300000000000002      6.0087895091009109
   108   2       9.415323436887439      1.3100000000000001      6.0087895091009109
   109   2      13.453918876076456      1.3100000000000001      7.9327174725717349
   110   2      13.453918876076456      3.9300000000000002      7.9327174725717349
