LAMMPS data file via write_data, version 2 Aug 2023, timestep = 4, units = metal

9 atoms
2 atom types

0 4.642 xlo xhi
0 4.0200899243673645 ylo yhi
0 6.529 zlo zhi
-2.3209999999999993 0 0 xy xz yz

Masses

1 24.32
2 65.39

Atoms # atomic

1 1 1.966119091356306e-16 1.3676064963526688 0 0 0 0
2 1 1.1366180317779593 3.3362866761910297 4.352666666666666 0 0 0
3 1 -1.1366180317779577 3.3362866761910297 2.176333333333333 0 0 0
4 1 2.321000000000001 2.652483428014695 0 0 0 0
5 1 1.184381968222042 0.6838032481763344 4.352666666666666 0 0 0
6 1 3.457618031777959 0.6838032481763345 2.176333333333333 0 0 0
7 2 1.074584865534689e-15 4.020089924367364 6.528999999999999 0 -1 -1
8 2 -1.1604999999999996 2.0100449621836822 4.352666666666666 0 0 0
9 2 1.1605000000000005 2.0100449621836822 2.176333333333333 0 0 0

Velocities

1 0 0 0
2 0 0 0
3 0 0 0
4 0 0 0
5 0 0 0
6 0 0 0
7 0 0 0
8 0 0 0
9 0 0 0
