LAMMPS data file via write_data, version 2 Aug 2023, timestep = 84, units = metal

39 atoms
2 atom types

0 8.552 xlo xhi
0 8.552 ylo yhi
0 8.552 zlo zhi

Masses

1 65.39
2 24.32

Atoms # atomic

7 2 4.251181327576883 4.261516263934344 4.288329610869161 0 0 0
16 2 4.25223541686877 0.007518133878706662 1.3686845177410794 0 0 0
27 2 1.8233161007019638 1.9081375803255405 1.8840382725366218 0 0 0
34 2 1.8107533130469218 3.03893102623578 4.280989641970791 0 0 0
8 2 8.521821108640513 1.9824595691371303 8.528404420465094 -1 0 -1
20 2 6.701250528998011 1.8669395816857204 1.9074465937462637 0 0 0
33 2 6.731028856191235 3.032736363673636 4.280792896972908 0 0 0
38 2 4.259724780518022 1.913592451571781 2.968488223624187 0 0 0
3 1 8.545527288897912 4.33206680298297 2.477915409691751 -1 0 0
5 1 2.469468825892711 0.0035501060786522487 4.213751221417235 0 0 0
18 2 1.2943630812617768 4.26196759538091 8.541259962208523 0 0 -1
22 2 1.8571715028217888 6.64288208941929 1.8377996128408187 0 0 0
30 2 3.0217027231640614 4.268944458868418 1.8092862658708726 0 0 0
37 2 4.259976120409805 6.645217980440776 2.9636492622956356 0 0 0
6 1 6.061459780257603 0.004039209812482625 4.219040137497028 0 0 0
10 2 0.00791117239599437 8.53191374768958 1.997232117770711 0 -1 0
25 2 6.6720558003264845 6.682962843664047 1.8667014986766475 0 0 0
28 2 5.576063346278832 4.270311532314821 1.9051908002560587 0 0 0
35 2 6.633899161349634 5.5870061797841295 4.279574338749953 0 0 0
12 2 1.972143496686492 0.022041786279995337 0.01751436627488623 0 0 0
17 2 4.251814545287427 0.008869038315201373 7.245149200178159 0 0 0
21 2 1.8693517833625477 1.8802620932396206 6.669083533971319 0 0 0
29 2 3.0277919071893566 4.268711990227033 6.728048930749405 0 0 0
36 2 4.258437165483019 1.8222628467690531 5.512005198678738 0 0 0
1 1 4.32609177733327 2.479897592405696 8.54658545326974 0 0 -1
13 2 6.542176999463687 0.01862177723600324 0.017549877528660218 0 0 0
14 2 8.550319175081341 1.3044140734334988 4.287516077836874 -1 0 0
26 2 6.656243932664851 1.8338364697744813 6.6412418590697335 0 0 0
2 1 4.320789384089823 6.071826553546495 8.54604759075573 0 0 -1
9 2 8.52180219389168 6.5523800579991995 8.531799695479082 -1 0 -1
24 2 1.8979969484796713 6.666088984612633 6.716577935988628 0 0 0
32 2 1.903901640172081 5.582391922912803 4.279735598462366 0 0 0
4 1 8.545004995877163 4.3372337996550865 6.070222565456133 -1 0 0
11 2 0.011153105680577369 8.5317987553054 6.567205457133068 0 -1 0
15 2 8.548944261180491 7.180725863079901 4.287082145479075 -1 0 0
19 2 7.1706128092388965 4.262374812723417 8.542617412623361 0 0 -1
23 2 6.632260959970278 6.71144180236074 6.683269426701978 0 0 0
31 2 5.571339284871017 4.270049476354669 6.6361495692001355 0 0 0
39 2 4.258659284890618 6.740704200670087 5.518089487336655 0 0 0

Velocities

7 0 0 0
16 0 0 0
27 0 0 0
34 0 0 0
8 0 0 0
20 0 0 0
33 0 0 0
38 0 0 0
3 0 0 0
5 0 0 0
18 0 0 0
22 0 0 0
30 0 0 0
37 0 0 0
6 0 0 0
10 0 0 0
25 0 0 0
28 0 0 0
35 0 0 0
12 0 0 0
17 0 0 0
21 0 0 0
29 0 0 0
36 0 0 0
1 0 0 0
13 0 0 0
14 0 0 0
26 0 0 0
2 0 0 0
9 0 0 0
24 0 0 0
32 0 0 0
4 0 0 0
11 0 0 0
15 0 0 0
19 0 0 0
23 0 0 0
31 0 0 0
39 0 0 0
