Generated by pymatgen.io.lammps.data.LammpsData

936  atoms

  2  atom types

0.000000 17.420982  xlo xhi
0.000000 17.420983  ylo yhi
0.000000 66.879487  zlo zhi

Masses

1  24.305
2  65.409

Atoms

1    2  0.000000  0.000000  9.982075
2    2  1.900061  1.900061  9.900061
3    1  2.655933  0.000000 12.355246
4    2  0.000000  1.383459 12.355246
5    2  2.090916  2.988452 12.355246
6    1  0.000000  4.355246 10.655933
7    2  2.988452  4.355246 10.090916
8    2  4.355246  4.355246 12.355246
9    2  8.710491 10.692566 60.262723
10   2  1.982075 17.420983 60.262723
11   2  0.000000  0.000000 14.728416
12   2  1.900061  1.900061 14.810430
13   2  4.355246  0.000000 15.327032
14   2  2.988452  4.355246 14.619575
15   2  4.355246  0.000000  9.383459
16   2  6.810430  1.900061  9.900061
17   2  4.355246  2.090916 10.988452
18   1  6.054558  0.000000 12.355246
19   2  6.619575  2.988452 12.355246
20   2  5.722040  4.355246 10.090916
21   1  4.355246  2.655933  8.000000
22   2  6.728416  0.000000  8.000000
23   2  6.810430  1.900061 14.810430
24   2  4.355246  2.090916 13.722039
25   2  5.722040  4.355246 14.619575
26   2  1.900061  6.810430  9.900061
27   2  2.090916  5.722040 12.355246
28   2  0.000000  6.728416  8.000000
29   2  1.383459  4.355246  8.000000
30   1  0.000000  4.355246 14.054558
31   2  0.000000  7.327032 12.355246
32   2  1.900061  6.810430 14.810430
33   2  6.810430  6.810430  9.900061
34   2  4.355246  6.619576 10.988452
35   2  6.619575  5.722040 12.355246
36   1 13.065737 14.765050 60.262723
37   2  7.327032  4.355246  8.000000
38   2  6.810430  6.810430 14.810430
39   2  4.355246  6.619576 13.722039
40   2  0.000000  0.000000 18.692566
41   2  1.900061  1.900061 18.610552
42   1  2.655933  0.000000 21.065737
43   2  0.000000  1.383459 21.065737
44   2  2.090916  2.988452 21.065737
45   1  0.000000  4.355246 19.366424
46   2  2.988452  4.355246 18.801407
47   2  4.355246  4.355246 21.065737
48   2  1.982075  0.000000 16.710491
49   2  0.000000  1.982075 16.710491
50   2  0.000000  0.000000 23.438907
51   2  1.900061  1.900061 23.520921
52   2  4.355246  0.000000 24.037523
53   2  2.988452  4.355246 23.330066
54   2  4.355246  0.000000 18.093950
55   2  6.810430  1.900061 18.610552
56   2  4.355246  2.090916 19.698943
57   1  6.054558  0.000000 21.065737
58   2  6.619575  2.988452 21.065737
59   2  5.722040  4.355246 18.801407
60   1  4.355246  2.655933 16.710491
61   2  6.728416  0.000000 16.710491
62   2  6.810430  1.900061 23.520921
63   2  4.355246  2.090916 22.432531
64   2  5.722040  4.355246 23.330066
65   2  1.900061  6.810430 18.610552
66   2  2.090916  5.722040 21.065737
67   2  0.000000  6.728416 16.710491
68   2  1.383459  4.355246 16.710491
69   1  0.000000  4.355246 22.765049
70   2  0.000000  7.327032 21.065737
71   2  1.900061  6.810430 23.520921
72   2  6.810430  6.810430 18.610552
73   2  4.355246  6.619576 19.698943
74   2  6.619575  5.722040 21.065737
75   1  4.355246  6.054558 16.710491
76   2  7.327032  4.355246 16.710491
77   2  6.810430  6.810430 23.520921
78   2  4.355246  6.619576 22.432531
79   2  0.000000  0.000000 27.403057
80   2  1.900061  1.900061 27.321043
81   1  2.655933  0.000000 29.776228
82   2  0.000000  1.383459 29.776228
83   2  2.090916  2.988452 29.776228
84   1  0.000000  4.355246 28.076915
85   2  2.988452  4.355246 27.511898
86   2  4.355246  4.355246 29.776228
87   2  1.982075  0.000000 25.420982
88   2  0.000000  1.982075 25.420982
89   2  0.000000  0.000000 32.149398
90   2  1.900061  1.900061 32.231412
91   2  4.355246  0.000000 32.748014
92   2  2.988452  4.355246 32.040557
93   2  4.355246  0.000000 26.804441
94   2  6.810430  1.900061 27.321043
95   2  4.355246  2.090916 28.409434
96   1  6.054558  0.000000 29.776228
97   2  6.619575  2.988452 29.776228
98   2  5.722040  4.355246 27.511898
99   1  4.355246  2.655933 25.420982
100  2  6.728416  0.000000 25.420982
101  2  6.810430  1.900061 32.231412
102  2  4.355246  2.090916 31.143022
103  2  5.722040  4.355246 32.040557
104  2  1.900061  6.810430 27.321043
105  2  2.090916  5.722040 29.776228
106  2  0.000000  6.728416 25.420982
107  2  1.383459  4.355246 25.420982
108  1  0.000000  4.355246 31.475540
109  2  0.000000  7.327032 29.776228
110  2  1.900061  6.810430 32.231412
111  2  6.810430  6.810430 27.321043
112  2  4.355246  6.619576 28.409434
113  2  6.619575  5.722040 29.776228
114  1  4.355246  6.054558 25.420982
115  2  7.327032  4.355246 25.420982
116  2  6.810430  6.810430 32.231412
117  2  4.355246  6.619576 31.143022
118  2  0.000000  0.000000 36.113548
119  2  1.900061  1.900061 36.031534
120  1  2.655933  0.000000 38.486719
121  2  0.000000  1.383459 38.486719
122  2  2.090916  2.988452 38.486719
123  1  0.000000  4.355246 36.787406
124  2  2.988452  4.355246 36.222389
125  2  4.355246  4.355246 38.486719
126  2  1.982075  0.000000 34.131473
127  2  0.000000  1.982075 34.131473
128  2  0.000000  0.000000 40.859889
129  2  1.900061  1.900061 40.941903
130  2  4.355246  0.000000 41.458505
131  2  2.988452  4.355246 40.751048
132  2  4.355246  0.000000 35.514932
133  2  6.810430  1.900061 36.031534
134  2  4.355246  2.090916 37.119925
135  1  6.054558  0.000000 38.486719
136  2  6.619575  2.988452 38.486719
137  2  5.722040  4.355246 36.222389
138  1  4.355246  2.655933 34.131473
139  2  6.728416  0.000000 34.131473
140  2  6.810430  1.900061 40.941903
141  2  4.355246  2.090916 39.853513
142  2  5.722040  4.355246 40.751048
143  2  1.900061  6.810430 36.031534
144  2  2.090916  5.722040 38.486719
145  2  0.000000  6.728416 34.131473
146  2  1.383459  4.355246 34.131473
147  1  0.000000  4.355246 40.186031
148  2  0.000000  7.327032 38.486719
149  2  1.900061  6.810430 40.941903
150  2  6.810430  6.810430 36.031534
151  2  4.355246  6.619576 37.119925
152  2  6.619575  5.722040 38.486719
153  1  4.355246  6.054558 34.131473
154  2  7.327032  4.355246 34.131473
155  2  6.810430  6.810430 40.941903
156  2  4.355246  6.619576 39.853513
157  2  0.000000  0.000000 44.824039
158  2  1.900061  1.900061 44.742025
159  1  2.655933  0.000000 47.197210
160  2  0.000000  1.383459 47.197210
161  2  2.090916  2.988452 47.197210
162  1  0.000000  4.355246 45.497897
163  2  2.988452  4.355246 44.932880
164  2  4.355246  4.355246 47.197210
165  2  1.982075  0.000000 42.841964
166  2  0.000000  1.982075 42.841964
167  2  0.000000  0.000000 49.570380
168  2  1.900061  1.900061 49.652394
169  2  4.355246  0.000000 50.168996
170  2  2.988452  4.355246 49.461539
171  2  4.355246  0.000000 44.225423
172  2  6.810430  1.900061 44.742025
173  2  4.355246  2.090916 45.830416
174  1  6.054558  0.000000 47.197210
175  2  6.619575  2.988452 47.197210
176  2  5.722040  4.355246 44.932880
177  1  4.355246  2.655933 42.841964
178  2  6.728416  0.000000 42.841964
179  2  6.810430  1.900061 49.652394
180  2  4.355246  2.090916 48.564004
181  2  5.722040  4.355246 49.461539
182  2  1.900061  6.810430 44.742025
183  2  2.090916  5.722040 47.197210
184  2  0.000000  6.728416 42.841964
185  2  1.383459  4.355246 42.841964
186  1  0.000000  4.355246 48.896522
187  2  0.000000  7.327032 47.197210
188  2  1.900061  6.810430 49.652394
189  2  6.810430  6.810430 44.742025
190  2  4.355246  6.619576 45.830416
191  2  6.619575  5.722040 47.197210
192  1  4.355246  6.054558 42.841964
193  2  7.327032  4.355246 42.841964
194  2  6.810430  6.810430 49.652394
195  2  4.355246  6.619576 48.564004
196  2  0.000000  0.000000 53.534530
197  2  1.900061  1.900061 53.452516
198  1  2.655933  0.000000 55.907701
199  2  0.000000  1.383459 55.907701
200  2  2.090916  2.988452 55.907701
201  1  0.000000  4.355246 54.208388
202  2  2.988452  4.355246 53.643371
203  2  4.355246  4.355246 55.907701
204  2  1.982075  0.000000 51.552455
205  2  0.000000  1.982075 51.552455
206  2  0.000000  0.000000 58.280871
207  2  1.900061  1.900061 58.362885
208  2  4.355246  0.000000 58.879487
209  2  2.988452  4.355246 58.172031
210  2  4.355246  0.000000 52.935914
211  2  6.810430  1.900061 53.452516
212  2  4.355246  2.090916 54.540907
213  1  6.054558  0.000000 55.907701
214  2  6.619575  2.988452 55.907701
215  2  5.722040  4.355246 53.643371
216  1  4.355246  2.655933 51.552455
217  2  6.728416  0.000000 51.552455
218  2  6.810430  1.900061 58.362885
219  2  4.355246  2.090916 57.274495
220  2  5.722040  4.355246 58.172031
221  2  1.900061  6.810430 53.452516
222  2  2.090916  5.722040 55.907701
223  2  0.000000  6.728416 51.552455
224  2  1.383459  4.355246 51.552455
225  1  0.000000  4.355246 57.607013
226  2  0.000000  7.327032 55.907701
227  2  1.900061  6.810430 58.362885
228  2  6.810430  6.810430 53.452516
229  2  4.355246  6.619576 54.540907
230  2  6.619575  5.722040 55.907701
231  1  4.355246  6.054558 51.552455
232  2  7.327032  4.355246 51.552455
233  2  6.810430  6.810430 58.362885
234  2  4.355246  6.619576 57.274495
235  2  0.000000  8.710491  9.982075
236  2  1.900061 10.610553  9.900061
237  1  2.655933  8.710491 12.355246
238  2  0.000000 10.093951 12.355246
239  2  2.090916 11.698943 12.355246
240  1  0.000000 13.065737 10.655933
241  2  2.988452 13.065737 10.090916
242  2  4.355246 13.065737 12.355246
243  2 17.420982 10.692566 60.262723
244  2 16.037523 13.065737 60.262723
245  2  0.000000  8.710491 14.728416
246  2  1.900061 10.610553 14.810430
247  2  4.355246  8.710491 15.327032
248  2  2.988452 13.065737 14.619575
249  2  4.355246  8.710491  9.383459
250  2  6.810430 10.610553  9.900061
251  2  4.355246 10.801407 10.988452
252  1  6.054558  8.710491 12.355246
253  2  6.619575 11.698943 12.355246
254  2  5.722040 13.065737 10.090916
255  1  4.355246 11.366424  8.000000
256  2  6.728416  8.710491  8.000000
257  2  6.810430 10.610553 14.810430
258  2  4.355246 10.801407 13.722039
259  2  5.722040 13.065737 14.619575
260  2  1.900061 15.520921  9.900061
261  2  2.090916 14.432531 12.355246
262  2 10.093950 13.065737 60.262723
263  2  1.383459  4.355246 60.262723
264  1  0.000000 13.065737 14.054558
265  2  0.000000 16.037523 12.355246
266  2  1.900061 15.520921 14.810430
267  2  6.810430 15.520921  9.900061
268  2  4.355246 15.330067 10.988452
269  2  6.619575 14.432531 12.355246
270  1  4.355246 14.765050  8.000000
271  2  7.327032  4.355246 60.262723
272  2  6.810430 15.520921 14.810430
273  2  4.355246 15.330067 13.722039
274  2  0.000000  8.710491 18.692566
275  2  1.900061 10.610553 18.610552
276  1  2.655933  8.710491 21.065737
277  2  0.000000 10.093951 21.065737
278  2  2.090916 11.698943 21.065737
279  1  0.000000 13.065737 19.366424
280  2  2.988452 13.065737 18.801407
281  2  4.355246 13.065737 21.065737
282  2  1.982075  8.710491 16.710491
283  2  0.000000 10.692566 16.710491
284  2  0.000000  8.710491 23.438907
285  2  1.900061 10.610553 23.520921
286  2  4.355246  8.710491 24.037523
287  2  2.988452 13.065737 23.330066
288  2  4.355246  8.710491 18.093950
289  2  6.810430 10.610553 18.610552
290  2  4.355246 10.801407 19.698943
291  1  6.054558  8.710491 21.065737
292  2  6.619575 11.698943 21.065737
293  2  5.722040 13.065737 18.801407
294  1  4.355246 11.366424 16.710491
295  2  6.728416  8.710491 16.710491
296  2  6.810430 10.610553 23.520921
297  2  4.355246 10.801407 22.432531
298  2  5.722040 13.065737 23.330066
299  2  1.900061 15.520921 18.610552
300  2  2.090916 14.432531 21.065737
301  2  0.000000 15.438908 16.710491
302  2  1.383459 13.065737 16.710491
303  1  0.000000 13.065737 22.765049
304  2  0.000000 16.037523 21.065737
305  2  1.900061 15.520921 23.520921
306  2  6.810430 15.520921 18.610552
307  2  4.355246 15.330067 19.698943
308  2  6.619575 14.432531 21.065737
309  1  4.355246 14.765050 16.710491
310  2  7.327032 13.065737 16.710491
311  2  6.810430 15.520921 23.520921
312  2  4.355246 15.330067 22.432531
313  2  0.000000  8.710491 27.403057
314  2  1.900061 10.610553 27.321043
315  1  2.655933  8.710491 29.776228
316  2  0.000000 10.093951 29.776228
317  2  2.090916 11.698943 29.776228
318  1  0.000000 13.065737 28.076915
319  2  2.988452 13.065737 27.511898
320  2  4.355246 13.065737 29.776228
321  2  1.982075  8.710491 25.420982
322  2  0.000000 10.692566 25.420982
323  2  0.000000  8.710491 32.149398
324  2  1.900061 10.610553 32.231412
325  2  4.355246  8.710491 32.748014
326  2  2.988452 13.065737 32.040557
327  2  4.355246  8.710491 26.804441
328  2  6.810430 10.610553 27.321043
329  2  4.355246 10.801407 28.409434
330  1  6.054558  8.710491 29.776228
331  2  6.619575 11.698943 29.776228
332  2  5.722040 13.065737 27.511898
333  1  4.355246 11.366424 25.420982
334  2  6.728416  8.710491 25.420982
335  2  6.810430 10.610553 32.231412
336  2  4.355246 10.801407 31.143022
337  2  5.722040 13.065737 32.040557
338  2  1.900061 15.520921 27.321043
339  2  2.090916 14.432531 29.776228
340  2  0.000000 15.438908 25.420982
341  2  1.383459 13.065737 25.420982
342  1  0.000000 13.065737 31.475540
343  2  0.000000 16.037523 29.776228
344  2  1.900061 15.520921 32.231412
345  2  6.810430 15.520921 27.321043
346  2  4.355246 15.330067 28.409434
347  2  6.619575 14.432531 29.776228
348  1  4.355246 14.765050 25.420982
349  2  7.327032 13.065737 25.420982
350  2  6.810430 15.520921 32.231412
351  2  4.355246 15.330067 31.143022
352  2  0.000000  8.710491 36.113548
353  2  1.900061 10.610553 36.031534
354  1  2.655933  8.710491 38.486719
355  2  0.000000 10.093951 38.486719
356  2  2.090916 11.698943 38.486719
357  1  0.000000 13.065737 36.787406
358  2  2.988452 13.065737 36.222389
359  2  4.355246 13.065737 38.486719
360  2  1.982075  8.710491 34.131473
361  2  0.000000 10.692566 34.131473
362  2  0.000000  8.710491 40.859889
363  2  1.900061 10.610553 40.941903
364  2  4.355246  8.710491 41.458505
365  2  2.988452 13.065737 40.751048
366  2  4.355246  8.710491 35.514932
367  2  6.810430 10.610553 36.031534
368  2  4.355246 10.801407 37.119925
369  1  6.054558  8.710491 38.486719
370  2  6.619575 11.698943 38.486719
371  2  5.722040 13.065737 36.222389
372  1  4.355246 11.366424 34.131473
373  2  6.728416  8.710491 34.131473
374  2  6.810430 10.610553 40.941903
375  2  4.355246 10.801407 39.853513
376  2  5.722040 13.065737 40.751048
377  2  1.900061 15.520921 36.031534
378  2  2.090916 14.432531 38.486719
379  2  0.000000 15.438908 34.131473
380  2  1.383459 13.065737 34.131473
381  1  0.000000 13.065737 40.186031
382  2  0.000000 16.037523 38.486719
383  2  1.900061 15.520921 40.941903
384  2  6.810430 15.520921 36.031534
385  2  4.355246 15.330067 37.119925
386  2  6.619575 14.432531 38.486719
387  1  4.355246 14.765050 34.131473
388  2  7.327032 13.065737 34.131473
389  2  6.810430 15.520921 40.941903
390  2  4.355246 15.330067 39.853513
391  2  0.000000  8.710491 44.824039
392  2  1.900061 10.610553 44.742025
393  1  2.655933  8.710491 47.197210
394  2  0.000000 10.093951 47.197210
395  2  2.090916 11.698943 47.197210
396  1  0.000000 13.065737 45.497897
397  2  2.988452 13.065737 44.932880
398  2  4.355246 13.065737 47.197210
399  2  1.982075  8.710491 42.841964
400  2  0.000000 10.692566 42.841964
401  2  0.000000  8.710491 49.570380
402  2  1.900061 10.610553 49.652394
403  2  4.355246  8.710491 50.168996
404  2  2.988452 13.065737 49.461539
405  2  4.355246  8.710491 44.225423
406  2  6.810430 10.610553 44.742025
407  2  4.355246 10.801407 45.830416
408  1  6.054558  8.710491 47.197210
409  2  6.619575 11.698943 47.197210
410  2  5.722040 13.065737 44.932880
411  1  4.355246 11.366424 42.841964
412  2  6.728416  8.710491 42.841964
413  2  6.810430 10.610553 49.652394
414  2  4.355246 10.801407 48.564004
415  2  5.722040 13.065737 49.461539
416  2  1.900061 15.520921 44.742025
417  2  2.090916 14.432531 47.197210
418  2  0.000000 15.438908 42.841964
419  2  1.383459 13.065737 42.841964
420  1  0.000000 13.065737 48.896522
421  2  0.000000 16.037523 47.197210
422  2  1.900061 15.520921 49.652394
423  2  6.810430 15.520921 44.742025
424  2  4.355246 15.330067 45.830416
425  2  6.619575 14.432531 47.197210
426  1  4.355246 14.765050 42.841964
427  2  7.327032 13.065737 42.841964
428  2  6.810430 15.520921 49.652394
429  2  4.355246 15.330067 48.564004
430  2  0.000000  8.710491 53.534530
431  2  1.900061 10.610553 53.452516
432  1  2.655933  8.710491 55.907701
433  2  0.000000 10.093951 55.907701
434  2  2.090916 11.698943 55.907701
435  1  0.000000 13.065737 54.208388
436  2  2.988452 13.065737 53.643371
437  2  4.355246 13.065737 55.907701
438  2  1.982075  8.710491 51.552455
439  2  0.000000 10.692566 51.552455
440  2  0.000000  8.710491 58.280871
441  2  1.900061 10.610553 58.362885
442  2  4.355246  8.710491 58.879487
443  2  2.988452 13.065737 58.172031
444  2  4.355246  8.710491 52.935914
445  2  6.810430 10.610553 53.452516
446  2  4.355246 10.801407 54.540907
447  1  6.054558  8.710491 55.907701
448  2  6.619575 11.698943 55.907701
449  2  5.722040 13.065737 53.643371
450  1  4.355246 11.366424 51.552455
451  2  6.728416  8.710491 51.552455
452  2  6.810430 10.610553 58.362885
453  2  4.355246 10.801407 57.274495
454  2  5.722040 13.065737 58.172031
455  2  1.900061 15.520921 53.452516
456  2  2.090916 14.432531 55.907701
457  2  0.000000 15.438908 51.552455
458  2  1.383459 13.065737 51.552455
459  1  0.000000 13.065737 57.607013
460  2  0.000000 16.037523 55.907701
461  2  1.900061 15.520921 58.362885
462  2  6.810430 15.520921 53.452516
463  2  4.355246 15.330067 54.540907
464  2  6.619575 14.432531 55.907701
465  1  4.355246 14.765050 51.552455
466  2  7.327032 13.065737 51.552455
467  2  6.810430 15.520921 58.362885
468  2  4.355246 15.330067 57.274495
469  2  8.710491  0.000000  9.982075
470  2 10.610552  1.900061  9.900061
471  1 11.366424  0.000000 12.355246
472  2  8.710491  1.383459 12.355246
473  2 10.801407  2.988452 12.355246
474  1  8.710491  4.355246 10.655933
475  2 11.698943  4.355246 10.090916
476  2 13.065737  4.355246 12.355246
477  2  8.710491  1.982075 60.262723
478  2  7.327032 13.065737 60.262723
479  2  8.710491  0.000000 14.728416
480  2 10.610552  1.900061 14.810430
481  2 13.065737  0.000000 15.327032
482  2 11.698943  4.355246 14.619575
483  2 13.065737  0.000000  9.383459
484  2 15.520921  1.900061  9.900061
485  2 13.065737  2.090916 10.988452
486  1 14.765049  0.000000 12.355246
487  2 15.330067  2.988452 12.355246
488  2 14.432531  4.355246 10.090916
489  1  4.355246  2.655933 60.262723
490  2 15.438908  0.000000  8.000000
491  2 15.520921  1.900061 14.810430
492  2 13.065737  2.090916 13.722039
493  2 14.432531  4.355246 14.619575
494  2 10.610552  6.810430  9.900061
495  2 10.801407  5.722040 12.355246
496  2  8.710491  6.728416  8.000000
497  2 10.093950  4.355246  8.000000
498  1  8.710491  4.355246 14.054558
499  2  8.710491  7.327032 12.355246
500  2 10.610552  6.810430 14.810430
501  2 15.520921  6.810430  9.900061
502  2 13.065737  6.619576 10.988452
503  2 15.330067  5.722040 12.355246
504  1 13.065737  6.054558 60.262723
505  2 16.037523  4.355246  8.000000
506  2 15.520921  6.810430 14.810430
507  2 13.065737  6.619576 13.722039
508  2  8.710491  0.000000 18.692566
509  2 10.610552  1.900061 18.610552
510  1 11.366424  0.000000 21.065737
511  2  8.710491  1.383459 21.065737
512  2 10.801407  2.988452 21.065737
513  1  8.710491  4.355246 19.366424
514  2 11.698943  4.355246 18.801407
515  2 13.065737  4.355246 21.065737
516  2 10.692566  0.000000 16.710491
517  2  8.710491  1.982075 16.710491
518  2  8.710491  0.000000 23.438907
519  2 10.610552  1.900061 23.520921
520  2 13.065737  0.000000 24.037523
521  2 11.698943  4.355246 23.330066
522  2 13.065737  0.000000 18.093950
523  2 15.520921  1.900061 18.610552
524  2 13.065737  2.090916 19.698943
525  1 14.765049  0.000000 21.065737
526  2 15.330067  2.988452 21.065737
527  2 14.432531  4.355246 18.801407
528  1 13.065737  2.655933 16.710491
529  2 15.438908  0.000000 16.710491
530  2 15.520921  1.900061 23.520921
531  2 13.065737  2.090916 22.432531
532  2 14.432531  4.355246 23.330066
533  2 10.610552  6.810430 18.610552
534  2 10.801407  5.722040 21.065737
535  2  8.710491  6.728416 16.710491
536  2 10.093950  4.355246 16.710491
537  1  8.710491  4.355246 22.765049
538  2  8.710491  7.327032 21.065737
539  2 10.610552  6.810430 23.520921
540  2 15.520921  6.810430 18.610552
541  2 13.065737  6.619576 19.698943
542  2 15.330067  5.722040 21.065737
543  1 13.065737  6.054558 16.710491
544  2 16.037523  4.355246 16.710491
545  2 15.520921  6.810430 23.520921
546  2 13.065737  6.619576 22.432531
547  2  8.710491  0.000000 27.403057
548  2 10.610552  1.900061 27.321043
549  1 11.366424  0.000000 29.776228
550  2  8.710491  1.383459 29.776228
551  2 10.801407  2.988452 29.776228
552  1  8.710491  4.355246 28.076915
553  2 11.698943  4.355246 27.511898
554  2 13.065737  4.355246 29.776228
555  2 10.692566  0.000000 25.420982
556  2  8.710491  1.982075 25.420982
557  2  8.710491  0.000000 32.149398
558  2 10.610552  1.900061 32.231412
559  2 13.065737  0.000000 32.748014
560  2 11.698943  4.355246 32.040557
561  2 13.065737  0.000000 26.804441
562  2 15.520921  1.900061 27.321043
563  2 13.065737  2.090916 28.409434
564  1 14.765049  0.000000 29.776228
565  2 15.330067  2.988452 29.776228
566  2 14.432531  4.355246 27.511898
567  1 13.065737  2.655933 25.420982
568  2 15.438908  0.000000 25.420982
569  2 15.520921  1.900061 32.231412
570  2 13.065737  2.090916 31.143022
571  2 14.432531  4.355246 32.040557
572  2 10.610552  6.810430 27.321043
573  2 10.801407  5.722040 29.776228
574  2  8.710491  6.728416 25.420982
575  2 10.093950  4.355246 25.420982
576  1  8.710491  4.355246 31.475540
577  2  8.710491  7.327032 29.776228
578  2 10.610552  6.810430 32.231412
579  2 15.520921  6.810430 27.321043
580  2 13.065737  6.619576 28.409434
581  2 15.330067  5.722040 29.776228
582  1 13.065737  6.054558 25.420982
583  2 16.037523  4.355246 25.420982
584  2 15.520921  6.810430 32.231412
585  2 13.065737  6.619576 31.143022
586  2  8.710491  0.000000 36.113548
587  2 10.610552  1.900061 36.031534
588  1 11.366424  0.000000 38.486719
589  2  8.710491  1.383459 38.486719
590  2 10.801407  2.988452 38.486719
591  1  8.710491  4.355246 36.787406
592  2 11.698943  4.355246 36.222389
593  2 13.065737  4.355246 38.486719
594  2 10.692566  0.000000 34.131473
595  2  8.710491  1.982075 34.131473
596  2  8.710491  0.000000 40.859889
597  2 10.610552  1.900061 40.941903
598  2 13.065737  0.000000 41.458505
599  2 11.698943  4.355246 40.751048
600  2 13.065737  0.000000 35.514932
601  2 15.520921  1.900061 36.031534
602  2 13.065737  2.090916 37.119925
603  1 14.765049  0.000000 38.486719
604  2 15.330067  2.988452 38.486719
605  2 14.432531  4.355246 36.222389
606  1 13.065737  2.655933 34.131473
607  2 15.438908  0.000000 34.131473
608  2 15.520921  1.900061 40.941903
609  2 13.065737  2.090916 39.853513
610  2 14.432531  4.355246 40.751048
611  2 10.610552  6.810430 36.031534
612  2 10.801407  5.722040 38.486719
613  2  8.710491  6.728416 34.131473
614  2 10.093950  4.355246 34.131473
615  1  8.710491  4.355246 40.186031
616  2  8.710491  7.327032 38.486719
617  2 10.610552  6.810430 40.941903
618  2 15.520921  6.810430 36.031534
619  2 13.065737  6.619576 37.119925
620  2 15.330067  5.722040 38.486719
621  1 13.065737  6.054558 34.131473
622  2 16.037523  4.355246 34.131473
623  2 15.520921  6.810430 40.941903
624  2 13.065737  6.619576 39.853513
625  2  8.710491  0.000000 44.824039
626  2 10.610552  1.900061 44.742025
627  1 11.366424  0.000000 47.197210
628  2  8.710491  1.383459 47.197210
629  2 10.801407  2.988452 47.197210
630  1  8.710491  4.355246 45.497897
631  2 11.698943  4.355246 44.932880
632  2 13.065737  4.355246 47.197210
633  2 10.692566  0.000000 42.841964
634  2  8.710491  1.982075 42.841964
635  2  8.710491  0.000000 49.570380
636  2 10.610552  1.900061 49.652394
637  2 13.065737  0.000000 50.168996
638  2 11.698943  4.355246 49.461539
639  2 13.065737  0.000000 44.225423
640  2 15.520921  1.900061 44.742025
641  2 13.065737  2.090916 45.830416
642  1 14.765049  0.000000 47.197210
643  2 15.330067  2.988452 47.197210
644  2 14.432531  4.355246 44.932880
645  1 13.065737  2.655933 42.841964
646  2 15.438908  0.000000 42.841964
647  2 15.520921  1.900061 49.652394
648  2 13.065737  2.090916 48.564004
649  2 14.432531  4.355246 49.461539
650  2 10.610552  6.810430 44.742025
651  2 10.801407  5.722040 47.197210
652  2  8.710491  6.728416 42.841964
653  2 10.093950  4.355246 42.841964
654  1  8.710491  4.355246 48.896522
655  2  8.710491  7.327032 47.197210
656  2 10.610552  6.810430 49.652394
657  2 15.520921  6.810430 44.742025
658  2 13.065737  6.619576 45.830416
659  2 15.330067  5.722040 47.197210
660  1 13.065737  6.054558 42.841964
661  2 16.037523  4.355246 42.841964
662  2 15.520921  6.810430 49.652394
663  2 13.065737  6.619576 48.564004
664  2  8.710491  0.000000 53.534530
665  2 10.610552  1.900061 53.452516
666  1 11.366424  0.000000 55.907701
667  2  8.710491  1.383459 55.907701
668  2 10.801407  2.988452 55.907701
669  1  8.710491  4.355246 54.208388
670  2 11.698943  4.355246 53.643371
671  2 13.065737  4.355246 55.907701
672  2 10.692566  0.000000 51.552455
673  2  8.710491  1.982075 51.552455
674  2  8.710491  0.000000 58.280871
675  2 10.610552  1.900061 58.362885
676  2 13.065737  0.000000 58.879487
677  2 11.698943  4.355246 58.172031
678  2 13.065737  0.000000 52.935914
679  2 15.520921  1.900061 53.452516
680  2 13.065737  2.090916 54.540907
681  1 14.765049  0.000000 55.907701
682  2 15.330067  2.988452 55.907701
683  2 14.432531  4.355246 53.643371
684  1 13.065737  2.655933 51.552455
685  2 15.438908  0.000000 51.552455
686  2 15.520921  1.900061 58.362885
687  2 13.065737  2.090916 57.274495
688  2 14.432531  4.355246 58.172031
689  2 10.610552  6.810430 53.452516
690  2 10.801407  5.722040 55.907701
691  2  8.710491  6.728416 51.552455
692  2 10.093950  4.355246 51.552455
693  1  8.710491  4.355246 57.607013
694  2  8.710491  7.327032 55.907701
695  2 10.610552  6.810430 58.362885
696  2 15.520921  6.810430 53.452516
697  2 13.065737  6.619576 54.540907
698  2 15.330067  5.722040 55.907701
699  1 13.065737  6.054558 51.552455
700  2 16.037523  4.355246 51.552455
701  2 15.520921  6.810430 58.362885
702  2 13.065737  6.619576 57.274495
703  2  8.710491  8.710491  9.982075
704  2 10.610552 10.610553  9.900061
705  1 11.366424  8.710491 12.355246
706  2  8.710491 10.093951 12.355246
707  2 10.801407 11.698943 12.355246
708  1  8.710491 13.065737 10.655933
709  2 11.698943 13.065737 10.090916
710  2 13.065737 13.065737 12.355246
711  2  1.383459 13.065737 60.262723
712  2 10.692566  8.710491 60.262723
713  2  8.710491  8.710491 14.728416
714  2 10.610552 10.610553 14.810430
715  2 13.065737  8.710491 15.327032
716  2 11.698943 13.065737 14.619575
717  2 13.065737  8.710491  9.383459
718  2 15.520921 10.610553  9.900061
719  2 13.065737 10.801407 10.988452
720  1 14.765049  8.710491 12.355246
721  2 15.330067 11.698943 12.355246
722  2 14.432531 13.065737 10.090916
723  1 13.065737  2.655933 60.262723
724  2 10.692566 17.420983 60.262723
725  2 15.520921 10.610553 14.810430
726  2 13.065737 10.801407 13.722039
727  2 14.432531 13.065737 14.619575
728  2 10.610552 15.520921  9.900061
729  2 10.801407 14.432531 12.355246
730  2  8.710491 15.438908  8.000000
731  2 10.093950 13.065737  8.000000
732  1  8.710491 13.065737 14.054558
733  2  8.710491 16.037523 12.355246
734  2 10.610552 15.520921 14.810430
735  2 15.520921 15.520921  9.900061
736  2 13.065737 15.330067 10.988452
737  2 15.330067 14.432531 12.355246
738  1 13.065737 14.765050  8.000000
739  2 16.037523 13.065737  8.000000
740  2 15.520921 15.520921 14.810430
741  2 13.065737 15.330067 13.722039
742  2  8.710491  8.710491 18.692566
743  2 10.610552 10.610553 18.610552
744  1 11.366424  8.710491 21.065737
745  2  8.710491 10.093951 21.065737
746  2 10.801407 11.698943 21.065737
747  1  8.710491 13.065737 19.366424
748  2 11.698943 13.065737 18.801407
749  2 13.065737 13.065737 21.065737
750  2 10.692566  8.710491 16.710491
751  2  8.710491 10.692566 16.710491
752  2  8.710491  8.710491 23.438907
753  2 10.610552 10.610553 23.520921
754  2 13.065737  8.710491 24.037523
755  2 11.698943 13.065737 23.330066
756  2 13.065737  8.710491 18.093950
757  2 15.520921 10.610553 18.610552
758  2 13.065737 10.801407 19.698943
759  1 14.765049  8.710491 21.065737
760  2 15.330067 11.698943 21.065737
761  2 14.432531 13.065737 18.801407
762  1 13.065737 11.366424 16.710491
763  2 15.438908  8.710491 16.710491
764  2 15.520921 10.610553 23.520921
765  2 13.065737 10.801407 22.432531
766  2 14.432531 13.065737 23.330066
767  2 10.610552 15.520921 18.610552
768  2 10.801407 14.432531 21.065737
769  2  8.710491 15.438908 16.710491
770  2 10.093950 13.065737 16.710491
771  1  8.710491 13.065737 22.765049
772  2  8.710491 16.037523 21.065737
773  2 10.610552 15.520921 23.520921
774  2 15.520921 15.520921 18.610552
775  2 13.065737 15.330067 19.698943
776  2 15.330067 14.432531 21.065737
777  1 13.065737 14.765050 16.710491
778  2 16.037523 13.065737 16.710491
779  2 15.520921 15.520921 23.520921
780  2 13.065737 15.330067 22.432531
781  2  8.710491  8.710491 27.403057
782  2 10.610552 10.610553 27.321043
783  1 11.366424  8.710491 29.776228
784  2  8.710491 10.093951 29.776228
785  2 10.801407 11.698943 29.776228
786  1  8.710491 13.065737 28.076915
787  2 11.698943 13.065737 27.511898
788  2 13.065737 13.065737 29.776228
789  2 10.692566  8.710491 25.420982
790  2  8.710491 10.692566 25.420982
791  2  8.710491  8.710491 32.149398
792  2 10.610552 10.610553 32.231412
793  2 13.065737  8.710491 32.748014
794  2 11.698943 13.065737 32.040557
795  2 13.065737  8.710491 26.804441
796  2 15.520921 10.610553 27.321043
797  2 13.065737 10.801407 28.409434
798  1 14.765049  8.710491 29.776228
799  2 15.330067 11.698943 29.776228
800  2 14.432531 13.065737 27.511898
801  1 13.065737 11.366424 25.420982
802  2 15.438908  8.710491 25.420982
803  2 15.520921 10.610553 32.231412
804  2 13.065737 10.801407 31.143022
805  2 14.432531 13.065737 32.040557