Generated by pymatgen.io.lammps.data.LammpsData

936  atoms

  2  atom types

0.000000 24.636989  xlo xhi
0.000000 21.336259  ylo yhi
0.000000 45.337883  zlo zhi
-12.318495 0.000000 0.000000  xy xz yz

Masses

1  24.305
2  65.409

Atoms

1    2   1.401539  0.809179  8.726280
2    2   6.159247 10.668129 10.872931
3    1   1.201595  2.862302 11.629834
4    2   3.079624  0.648432 10.895171
5    2   1.601123  7.303660  8.000000
6    1  -4.281219  8.196366 11.629834
7    2  -0.634654  5.629686  8.000000
8    2  -0.000000  7.112086 10.096430
9    2  10.916956  0.809179  8.726280
10   2   6.159247  9.049772  8.726280
11   2   4.757709  2.746864 11.466581
12   2   3.472155  9.116736  8.678929
13   2   8.260618  1.213227  9.297690
14   2   2.567592  7.478504 10.614623
15   2  10.217124  2.342816 10.895171
16   2  -3.472155  9.116736  8.678929
17   2  -0.966469  8.402913  8.000000
18   1   4.957652  0.693741  8.563027
19   2  -1.601123  9.152478 10.614623
20   2  -2.567592  6.745669  9.578238
21   1   3.079623 10.277591 11.629834
22   2   7.560786  2.746864 11.466581
23   2   6.159247  0.453256 11.513932
24   2   0.966469  9.518895  9.578238
25   2   0.634654  8.594486 12.192861
26   2  -0.000000  3.102787  8.678929
27   2   1.601123  5.071695  9.578238
28   2   6.159247  5.174400 11.466581
29   2   5.180994  7.676881 10.895171
30   1   4.281219  6.027806  8.563027
31   2   3.079624  2.907611  9.297690
32   2   3.472155  5.107437 11.513932
33   2   8.846340  5.107437 11.513932
34   2  -0.966469  4.705277 10.614623
35   2  -1.601123  6.920512 12.192861
36   1   9.238871  3.946582  8.563027
37   2   7.137501  6.547291  9.297690
38   2   6.159247  3.556043  9.319930
39   2   0.966469  5.821260 12.192861
40   2   7.560786  4.365222 13.755284
41   2   6.159247  3.556043 15.901935
42   1   7.360843  6.418345 16.658838
43   2   9.238871  4.204475 15.924175
44   2   1.601123  0.191574 13.029004
45   1   8.037275  1.084280 16.658838
46   2   5.524593  9.185729 13.029004
47   2   6.159247 10.668129 15.125435
48   2   4.757709  4.365222 13.755284
49   2   6.159247  1.937686 13.755284
50   2  -1.401539  6.302907 16.495586
51   2   3.472155  2.004650 13.707933
52   2   2.101370  4.769270 14.326694
53   2   2.567592  0.366417 15.643627
54   2   4.057877  5.898859 15.924175
55   2   8.846340  2.004650 13.707933
56   2  11.352025  1.290826 13.029004
57   1  -1.201596  4.249784 13.592031
58   2  10.717372  2.040391 15.643627
59   2   3.591655 10.301712 14.607242
60   1   3.079623  3.165504 16.658838
61   2   1.401538  6.302907 16.495586
62   2  -0.000000  4.009299 16.542936
63   2   0.966469  2.406809 14.607242
64   2   0.634654  1.482400 17.221865
65   2   6.159247  6.658830 13.707933
66   2  -4.558125  8.627738 14.607242
67   2  -0.000000  8.730444 16.495586
68   2   5.180994  0.564795 15.924175
69   1  -1.878028  9.583849 13.592031
70   2  -3.079624  6.463654 14.326694
71   2  -2.687093  8.663480 16.542936
72   2   2.687092  8.663480 16.542936
73   2   5.192778  8.261320 15.643627
74   2   4.558124 10.476555 17.221865
75   1   3.079623  7.502625 13.592031
76   2   0.978253 10.103334 14.326694
77   2  -0.000000  7.112086 14.348934
78   2  -5.192778  9.377303 17.221865
79   2   1.401538  7.921265 18.784288
80   2  -0.000000  7.112086 20.930940
81   1   1.201595  9.974388 21.687843
82   2   3.079623  7.760518 20.953180
83   2   7.760370  3.747617 18.058009
84   1   1.878028  4.640323 21.687843
85   2   5.524593  2.073643 18.058009
86   2   6.159247  3.556043 20.154439
87   2  -1.401539  7.921265 18.784288
88   2  -0.000000  5.493729 18.784288
89   2   4.757708  9.858951 21.524590
90   2  -2.687093  5.560693 18.736938
91   2  -4.057877  8.325313 19.355699
92   2   8.726839  3.922460 20.672632
93   2  -2.101371  9.454903 20.953180
94   2   2.687092  5.560693 18.736938
95   2   5.192778  4.846869 18.058009
96   1   4.957652  7.805828 18.621036
97   2   4.558124  5.596434 20.672632
98   2   3.591655  3.189625 19.636247
99   1  -3.079624  6.721547 21.687843
100  2  -4.757709  9.858951 21.524590
101  2   6.159247  7.565342 21.571941
102  2   7.125716  5.962852 19.636247
103  2   6.793901  5.038443 22.250870
104  2  -0.000000 10.214873 18.736938
105  2   7.760370  1.515652 19.636247
106  2  -0.000000  1.618357 21.524590
107  2  -0.978254  4.120838 20.953180
108  1  10.440466  2.471763 18.621036
109  2   3.079623 10.019697 19.355699
110  2   9.631402  1.551393 21.571941
111  2   2.687092  1.551393 21.571941
112  2   5.192778  1.149234 20.672632
113  2   4.558124  3.364469 22.250869
114  1   3.079623  0.390538 18.621036
115  2   0.978253  2.991248 19.355699
116  2   6.159247 10.668129 19.377939
117  2   7.125716  2.265217 22.250869
118  2   1.401538  0.809178 23.813293
119  2   6.159247 10.668129 25.959944
120  1   1.201595  2.862301 26.716847
121  2   3.079623  0.648431 25.982184
122  2   1.601123  7.303660 23.087013
123  1  -4.281220  8.196366 26.716847
124  2  -0.634654  5.629686 23.087013
125  2  -0.000000  7.112086 25.183444
126  2  10.916956  0.809178 23.813293
127  2   6.159247  9.049772 23.813293
128  2   4.757708  2.746864 26.553594
129  2   3.472155  9.116736 23.765942
130  2   8.260617  1.213226 24.384703
131  2   2.567592  7.478503 25.701636
132  2  10.217124  2.342816 25.982184
133  2  -3.472155  9.116736 23.765942
134  2  -0.966470  8.402912 23.087013
135  1   4.957652  0.693741 23.650040
136  2  -1.601123  9.152477 25.701636
137  2  -2.567593  6.745668 24.665251
138  1   3.079623 10.277590 26.716847
139  2   7.560786  2.746864 26.553594
140  2   6.159247  0.453256 26.600945
141  2   0.966469  9.518895 24.665251
142  2   0.634653  8.594486 27.279874
143  2  -0.000000  3.102787 23.765942
144  2   1.601123  5.071695 24.665251
145  2   6.159247  5.174400 26.553594
146  2   5.180994  7.676881 25.982184
147  1   4.281219  6.027806 23.650040
148  2   3.079623  2.907611 24.384703
149  2   3.472155  5.107436 26.600945
150  2   8.846339  5.107436 26.600945
151  2  -0.966470  4.705277 25.701636
152  2  -1.601123  6.920512 27.279874
153  1   9.238871  3.946581 23.650040
154  2   7.137500  6.547291 24.384703
155  2   6.159247  3.556043 24.406943
156  2   0.966469  5.821260 27.279874
157  2   7.560786  4.365221 28.842297
158  2   6.159247  3.556043 30.988948
159  1   7.360842  6.418344 31.745852
160  2   9.238871  4.204474 31.011189
161  2   1.601123  0.191573 28.116018
162  1   8.037275  1.084280 31.745852
163  2   5.524593  9.185729 28.116018
164  2   6.159247 10.668129 30.212448
165  2   4.757708  4.365221 28.842297
166  2   6.159247  1.937685 28.842297
167  2  -1.401539  6.302907 31.582599
168  2   3.472155  2.004649 28.794947
169  2   2.101370  4.769269 29.413707
170  2   2.567592  0.366417 30.730641
171  2   4.057877  5.898859 31.011189
172  2   8.846339  2.004649 28.794947
173  2  11.352025  1.290826 28.116018
174  1  -1.201596  4.249784 28.679044
175  2  10.717371  2.040391 30.730641
176  2   3.591655 10.301712 29.694255
177  1   3.079623  3.165504 31.745852
178  2   1.401538  6.302907 31.582599
179  2  -0.000000  4.009299 31.629949
180  2   0.966469  2.406808 29.694255
181  2   0.634653  1.482400 32.308878
182  2   6.159247  6.658830 28.794947
183  2  -4.558125  8.627738 29.694255
184  2  -0.000001  8.730443 31.582599
185  2   5.180994  0.564794 31.011189
186  1  -1.878029  9.583849 28.679044
187  2  -3.079624  6.463654 29.413707
188  2  -2.687093  8.663479 31.629949
189  2   2.687092  8.663479 31.629949
190  2   5.192778  8.261320 30.730641
191  2   4.558124 10.476555 32.308878
192  1   3.079623  7.502625 28.679044
193  2   0.978253 10.103334 29.413707
194  2  -0.000000  7.112086 29.435948
195  2  -5.192779  9.377303 32.308878
196  2   1.401538  7.921264 33.871302
197  2  -0.000001  7.112086 36.017953
198  1   1.201595  9.974387 36.774856
199  2   3.079623  7.760517 36.040193
200  2   7.760370  3.747616 33.145022
201  1   1.878028  4.640323 36.774856
202  2   5.524593  2.073643 33.145022
203  2   6.159247  3.556043 35.241452
204  2  -1.401539  7.921264 33.871302
205  2  -0.000001  5.493728 33.871302
206  2   4.757708  9.858950 36.611603
207  2  -2.687093  5.560692 33.823951
208  2  -4.057878  8.325312 34.442712
209  2   8.726839  3.922460 35.759645
210  2  -2.101371  9.454902 36.040193
211  2   2.687092  5.560692 33.823951
212  2   5.192778  4.846869 33.145022
213  1   4.957651  7.805827 33.708049
214  2   4.558124  5.596434 35.759645
215  2   3.591655  3.189625 34.723260
216  1  -3.079624  6.721547 36.774856
217  2  -4.757709  9.858950 36.611603
218  2   6.159247  7.565342 36.658954
219  2   7.125716  5.962851 34.723260
220  2   6.793900  5.038443 37.337883
221  2  -0.000001 10.214873 33.823951
222  2   7.760370  1.515651 34.723260
223  2  -0.000001  1.618357 36.611603
224  2  -0.978254  4.120837 36.040193
225  1  10.440466  2.471762 33.708049
226  2   3.079623 10.019697 34.442712
227  2   9.631402  1.551393 36.658954
228  2   2.687092  1.551393 36.658954
229  2   5.192778  1.149234 35.759645
230  2   4.558124  3.364469 37.337883
231  1   3.079623  0.390538 33.708049
232  2   0.978253  2.991248 34.442712
233  2   6.159247 10.668129 34.464952
234  2   7.125716  2.265216 37.337883
235  2  -4.757709 11.477308  8.726280
236  2  12.318495 -0.000000 10.872931
237  1  -4.957652 13.530431 11.629834
238  2  -3.079624 11.316561 10.895171
239  2  -4.558125 17.971790  8.000000
240  1 -10.440467 18.864496 11.629834
241  2  -6.793901 16.297816  8.000000
242  2  -6.159248 17.780216 10.096430
243  2   4.757709 11.477308  8.726280
244  2  -0.000000 19.717902  8.726280
245  2  -1.401539 13.414994 11.466581
246  2  -2.687093 19.784865  8.678929
247  2   2.101370 11.881356  9.297690
248  2  -3.591655 18.146633 10.614623
249  2   4.057877 13.010946 10.895171
250  2  -9.631403 19.784865  8.678929
251  2  -7.125717 19.071042  8.000000
252  1  -1.201596 11.361871  8.563027
253  2  -7.760371 19.820607 10.614623
254  2  -8.726840 17.413798  9.578238
255  1  -3.079624 20.945720 11.629834
256  2   1.401538 13.414994 11.466581
257  2  -0.000000 11.121386 11.513932
258  2  -5.192778 20.187025  9.578238
259  2  -5.524594 19.262616 12.192861
260  2  -6.159248 13.770916  8.678929
261  2  -4.558125 15.739824  9.578238
262  2  -0.000000 15.842530 11.466581
263  2  -0.978254 18.345011 10.895171
264  1  -1.878028 16.695936  8.563027
265  2  -3.079624 13.575741  9.297690
266  2  -2.687093 15.775566 11.513932
267  2   2.687092 15.775566 11.513932
268  2  -7.125717 15.373407 10.614623
269  2  -7.760371 17.588642 12.192861
270  1   3.079623 14.614711  8.563027
271  2   0.978253 17.215421  9.297690
272  2  -0.000000 14.224173  9.319930
273  2  -5.192778 16.489389 12.192861
274  2   1.401538 15.033351 13.755284
275  2  -0.000000 14.224172 15.901935
276  1   1.201595 17.086474 16.658838
277  2   3.079623 14.872604 15.924175
278  2  -4.558125 10.859703 13.029004
279  1   1.878028 11.752409 16.658838
280  2  -0.634654 19.853859 13.029004
281  2  12.318495 -0.000000 15.125435
282  2  -1.401539 15.033351 13.755284
283  2  -0.000000 12.605815 13.755284
284  2  -7.560786 16.971037 16.495586
285  2  -2.687093 12.672779 13.707933
286  2  -4.057877 15.437399 14.326694
287  2  -3.591655 11.034547 15.643627
288  2  -2.101371 16.566989 15.924175
289  2   2.687092 12.672779 13.707933
290  2   5.192778 11.958956 13.029004
291  1  -7.360843 14.917914 13.592031
292  2   4.558124 12.708521 15.643627
293  2  -2.567593 20.969841 14.607242
294  1  -3.079624 13.833634 16.658838
295  2  -4.757709 16.971037 16.495586
296  2  -6.159248 14.677429 16.542936
297  2  -5.192778 13.074938 14.607242
298  2  -5.524594 12.150529 17.221865
299  2  -0.000000 17.326960 13.707933
300  2 -10.717372 19.295867 14.607242
301  2  -6.159248 19.398573 16.495586
302  2  -0.978254 11.232924 15.924175
303  1  -8.037276 20.251979 13.592031
304  2  -9.238871 17.131784 14.326694
305  2  -8.846340 19.331609 16.542936
306  2  -3.472155 19.331609 16.542936
307  2  -0.966470 18.929450 15.643627
308  2  -1.601123 21.144685 17.221865
309  1  -3.079624 18.170754 13.592031
310  2  -5.180994 20.771464 14.326694
311  2  -6.159248 17.780216 14.348934
312  2 -11.352026 20.045433 17.221865
313  2  -4.757709 18.589394 18.784288
314  2  -6.159248 17.780216 20.930940
315  1  -4.957652 20.642517 21.687843
316  2  -3.079624 18.428647 20.953180
317  2   1.601123 14.415746 18.058009
318  1  -4.281220 15.308452 21.687843
319  2  -0.634654 12.741772 18.058009
320  2  -0.000000 14.224172 20.154439
321  2  -7.560786 18.589394 18.784288
322  2  -6.159248 16.161858 18.784288
323  2  -1.401539 20.527080 21.524590
324  2  -8.846340 16.228822 18.736938
325  2 -10.217125 18.993442 19.355699
326  2   2.567592 14.590590 20.672632
327  2  -8.260618 20.123032 20.953180
328  2  -3.472155 16.228822 18.736938
329  2  -0.966470 15.514999 18.058009
330  1  -1.201596 18.473957 18.621036
331  2  -1.601123 16.264564 20.672632
332  2  -2.567593 13.857755 19.636247
333  1  -9.238871 17.389677 21.687843
334  2 -10.916957 20.527080 21.524590
335  2  -0.000000 18.233472 21.571941
336  2   0.966469 16.630981 19.636247
337  2   0.634653 15.706572 22.250870
338  2  -6.159248 20.883003 18.736938
339  2   1.601123 12.183781 19.636247
340  2  -6.159248 12.286487 21.524590
341  2  -7.137501 14.788967 20.953180
342  1   4.281219 13.139892 18.621036
343  2  -3.079624 20.687827 19.355699
344  2   3.472155 12.219523 21.571941
345  2  -3.472155 12.219523 21.571941
346  2  -0.966470 11.817363 20.672632
347  2  -1.601123 14.032599 22.250869
348  1  -3.079624 11.058668 18.621036
349  2  -5.180994 13.659378 19.355699
350  2  12.318494 -0.000000 19.377939
351  2   0.966469 12.933346 22.250869
352  2  -4.757709 11.477308 23.813293
353  2  12.318494 -0.000000 25.959944
354  1  -4.957652 13.530431 26.716847
355  2  -3.079624 11.316561 25.982184
356  2  -4.558125 17.971789 23.087013
357  1 -10.440467 18.864496 26.716847
358  2  -6.793901 16.297815 23.087013
359  2  -6.159248 17.780215 25.183444
360  2   4.757708 11.477308 23.813293
361  2  -0.000001 19.717901 23.813293
362  2  -1.401539 13.414994 26.553594
363  2  -2.687093 19.784865 23.765942
364  2   2.101370 11.881356 24.384703
365  2  -3.591656 18.146633 25.701636
366  2   4.057877 13.010946 25.982184
367  2  -9.631403 19.784865 23.765942
368  2  -7.125717 19.071042 23.087013
369  1  -1.201596 11.361871 23.650040
370  2  -7.760371 19.820607 25.701636
371  2  -8.726840 17.413798 24.665251
372  1  -3.079624 20.945720 26.716847
373  2   1.401538 13.414994 26.553594
374  2  -0.000000 11.121385 26.600945
375  2  -5.192779 20.187024 24.665251
376  2  -5.524594 19.262616 27.279874
377  2  -6.159248 13.770916 23.765942
378  2  -4.558125 15.739824 24.665251
379  2  -0.000001 15.842530 26.553594
380  2  -0.978254 18.345010 25.982184
381  1  -1.878029 16.695935 23.650040
382  2  -3.079624 13.575741 24.384703
383  2  -2.687093 15.775566 26.600945
384  2   2.687092 15.775566 26.600945
385  2  -7.125717 15.373407 25.701636
386  2  -7.760371 17.588642 27.279874
387  1   3.079623 14.614711 23.650040
388  2   0.978253 17.215421 24.384703
389  2  -0.000000 14.224172 24.406943
390  2  -5.192779 16.489389 27.279874
391  2   1.401538 15.033351 28.842297
392  2  -0.000001 14.224172 30.988948
393  1   1.201595 17.086474 31.745852
394  2   3.079623 14.872604 31.011189
395  2  -4.558125 10.859703 28.116018
396  1   1.878028 11.752409 31.745852
397  2  -0.634654 19.853858 28.116018
398  2  12.318494 -0.000000 30.212448
399  2  -1.401539 15.033351 28.842297
400  2  -0.000001 12.605815 28.842297
401  2  -7.560787 16.971037 31.582599
402  2  -2.687093 12.672779 28.794947
403  2  -4.057878 15.437399 29.413707
404  2  -3.591656 11.034546 30.730641
405  2  -2.101371 16.566989 31.011189
406  2   2.687092 12.672779 28.794947
407  2   5.192778 11.958955 28.116018
408  1  -7.360843 14.917914 28.679044
409  2   4.558124 12.708520 30.730641
410  2  -2.567593 20.969841 29.694255
411  1  -3.079624 13.833633 31.745852
412  2  -4.757709 16.971037 31.582599
413  2  -6.159248 14.677428 31.629949
414  2  -5.192779 13.074938 29.694255
415  2  -5.524594 12.150529 32.308878
416  2  -0.000001 17.326959 28.794947
417  2 -10.717372 19.295867 29.694255
418  2  -6.159248 19.398573 31.582599
419  2  -0.978254 11.232924 31.011189
420  1  -8.037276 20.251978 28.679044
421  2  -9.238872 17.131784 29.413707
422  2  -8.846340 19.331609 31.629949
423  2  -3.472156 19.331609 31.629949
424  2  -0.966470 18.929450 30.730641
425  2  -1.601124 21.144685 32.308878
426  1  -3.079624 18.170754 28.679044
427  2  -5.180995 20.771464 29.413707
428  2  -6.159248 17.780215 29.435948
429  2 -11.352026 20.045432 32.308878
430  2  -4.757709 18.589394 33.871302
431  2  -6.159248 17.780215 36.017953
432  1  -4.957653 20.642517 36.774856
433  2  -3.079624 18.428647 36.040193
434  2   1.601122 14.415746 33.145022
435  1  -4.281220 15.308452 36.774856
436  2  -0.634654 12.741772 33.145022
437  2  -0.000001 14.224172 35.241452
438  2  -7.560787 18.589394 33.871302
439  2  -6.159248 16.161858 33.871302
440  2  -1.401539 20.527080 36.611603
441  2  -8.846340 16.228822 33.823951
442  2 -10.217125 18.993442 34.442712
443  2   2.567592 14.590590 35.759645
444  2  -8.260618 20.123032 36.040193
445  2  -3.472156 16.228822 33.823951
446  2  -0.966470 15.514998 33.145022
447  1  -1.201596 18.473957 33.708049
448  2  -1.601124 16.264563 35.759645
449  2  -2.567593 13.857755 34.723260
450  1  -9.238872 17.389677 36.774856
451  2 -10.916957 20.527080 36.611603
452  2  -0.000001 18.233471 36.658954
453  2   0.966469 16.630981 34.723260
454  2   0.634653 15.706572 37.337883
455  2  -6.159248 20.883002 33.823951
456  2   1.601122 12.183781 34.723260
457  2  -6.159248 12.286486 36.611603
458  2  -7.137501 14.788967 36.040193
459  1   4.281219 13.139892 33.708049
460  2  -3.079624 20.687827 34.442712
461  2   3.472154 12.219522 36.658954
462  2  -3.472156 12.219522 36.658954
463  2  -0.966470 11.817363 35.759645
464  2  -1.601124 14.032598 37.337883
465  1  -3.079624 11.058668 33.708049
466  2  -5.180995 13.659377 34.442712
467  2  12.318494 -0.000001 34.464952
468  2   0.966469 12.933346 37.337883
469  2  13.720033  0.809179  8.726280
470  2  -6.159248 10.668129 10.872931
471  1  13.520090  2.862302 11.629834
472  2  15.398118  0.648432 10.895171
473  2  13.919618  7.303660  8.000000
474  1   8.037275  8.196366 11.629834
475  2  11.683841  5.629686  8.000000
476  2  12.318495  7.112086 10.096430
477  2  23.235451  0.809179  8.726280
478  2  18.477742  9.049772  8.726280
479  2  17.076203  2.746864 11.466581
480  2  15.790650  9.116736  8.678929
481  2  20.579112  1.213227  9.297690
482  2  14.886087  7.478504 10.614623
483  2  22.535619  2.342816 10.895171
484  2   8.846340  9.116736  8.678929
485  2  11.352025  8.402913  8.000000
486  1  17.276147  0.693741  8.563027
487  2  10.717372  9.152478 10.614623
488  2   9.750902  6.745669  9.578238
489  1  15.398118 10.277591 11.629834
490  2  19.879280  2.746864 11.466581
491  2  18.477742  0.453256 11.513932
492  2  13.284964  9.518895  9.578238
493  2  12.953148  8.594486 12.192861
494  2  12.318495  3.102787  8.678929
495  2  13.919618  5.071695  9.578238
496  2  18.477742  5.174400 11.466581
497  2  17.499488  7.676881 10.895171
498  1  16.599714  6.027806  8.563027
499  2  15.398118  2.907611  9.297690
500  2  15.790650  5.107437 11.513932
501  2  21.164834  5.107437 11.513932
502  2  11.352025  4.705277 10.614623
503  2  10.717372  6.920512 12.192861
504  1  21.557366  3.946582  8.563027
505  2  19.455995  6.547291  9.297690
506  2  18.477742  3.556043  9.319930
507  2  13.284964  5.821260 12.192861
508  2  19.879280  4.365222 13.755284
509  2  18.477742  3.556043 15.901935
510  1  19.679337  6.418345 16.658838
511  2  21.557366  4.204475 15.924175
512  2  13.919618  0.191574 13.029004
513  1  20.355770  1.084280 16.658838
514  2  17.843088  9.185729 13.029004
515  2  -6.159248 10.668129 15.125435
516  2  17.076203  4.365222 13.755284
517  2  18.477742  1.937686 13.755284
518  2  10.916956  6.302907 16.495586
519  2  15.790650  2.004650 13.707933
520  2  14.419865  4.769270 14.326694
521  2  14.886087  0.366417 15.643627
522  2  16.376372  5.898859 15.924175
523  2  21.164834  2.004650 13.707933
524  2  23.670520  1.290826 13.029004
525  1  11.116899  4.249784 13.592031
526  2  23.035866  2.040391 15.643627
527  2  15.910150 10.301712 14.607242
528  1  15.398118  3.165504 16.658838
529  2  13.720033  6.302907 16.495586
530  2  12.318494  4.009299 16.542936
531  2  13.284964  2.406809 14.607242
532  2  12.953148  1.482400 17.221865
533  2  18.477742  6.658830 13.707933
534  2   7.760370  8.627738 14.607242
535  2  12.318494  8.730444 16.495586
536  2  17.499488  0.564795 15.924175
537  1  10.440466  9.583849 13.592031
538  2   9.238871  6.463654 14.326694
539  2   9.631402  8.663480 16.542936
540  2  15.005587  8.663480 16.542936
541  2  17.511273  8.261320 15.643627
542  2  16.876619 10.476555 17.221865
543  1  15.398118  7.502625 13.592031
544  2  13.296748 10.103334 14.326694
545  2  12.318494  7.112086 14.348934
546  2   7.125716  9.377303 17.221865
547  2  13.720033  7.921265 18.784288
548  2  12.318494  7.112086 20.930940
549  1  13.520090  9.974388 21.687843
550  2  15.398118  7.760518 20.953180
551  2  20.078865  3.747617 18.058009
552  1  14.196523  4.640323 21.687843
553  2  17.843088  2.073643 18.058009
554  2  18.477742  3.556043 20.154439
555  2  10.916956  7.921265 18.784288
556  2  12.318494  5.493729 18.784288
557  2  17.076203  9.858951 21.524590
558  2   9.631402  5.560693 18.736938
559  2   8.260617  8.325313 19.355699
560  2  21.045334  3.922460 20.672632
561  2  10.217124  9.454903 20.953180
562  2  15.005587  5.560693 18.736938
563  2  17.511273  4.846869 18.058009
564  1  17.276146  7.805828 18.621036
565  2  16.876619  5.596434 20.672632
566  2  15.910150  3.189625 19.636247
567  1   9.238871  6.721547 21.687843
568  2   7.560786  9.858951 21.524590
569  2  18.477742  7.565342 21.571941
570  2  19.444211  5.962852 19.636247
571  2  19.112395  5.038443 22.250870
572  2  12.318494 10.214873 18.736938
573  2  20.078865  1.515652 19.636247
574  2  12.318494  1.618357 21.524590
575  2  11.340241  4.120838 20.953180
576  1  22.758961  2.471763 18.621036
577  2  15.398118 10.019697 19.355699
578  2  21.949897  1.551393 21.571941
579  2  15.005587  1.551393 21.571941
580  2  17.511273  1.149234 20.672632
581  2  16.876619  3.364469 22.250869
582  1  15.398118  0.390538 18.621036
583  2  13.296748  2.991248 19.355699
584  2  -6.159248 10.668129 19.377939
585  2  19.444211  2.265217 22.250869
586  2  13.720033  0.809178 23.813293
587  2  -6.159248 10.668129 25.959944
588  1  13.520090  2.862301 26.716847
589  2  15.398118  0.648431 25.982184
590  2  13.919617  7.303660 23.087013
591  1   8.037275  8.196366 26.716847
592  2  11.683841  5.629686 23.087013
593  2  12.318494  7.112086 25.183444
594  2  23.235451  0.809178 23.813293
595  2  18.477742  9.049772 23.813293
596  2  17.076203  2.746864 26.553594
597  2  15.790649  9.116736 23.765942
598  2  20.579112  1.213226 24.384703
599  2  14.886087  7.478503 25.701636
600  2  22.535619  2.342816 25.982184
601  2   8.846339  9.116736 23.765942
602  2  11.352025  8.402912 23.087013
603  1  17.276146  0.693741 23.650040
604  2  10.717371  9.152477 25.701636
605  2   9.750902  6.745668 24.665251
606  1  15.398118 10.277590 26.716847
607  2  19.879280  2.746864 26.553594
608  2  18.477742  0.453256 26.600945
609  2  13.284964  9.518895 24.665251
610  2  12.953148  8.594486 27.279874
611  2  12.318494  3.102787 23.765942
612  2  13.919617  5.071695 24.665251
613  2  18.477742  5.174400 26.553594
614  2  17.499488  7.676881 25.982184
615  1  16.599713  6.027806 23.650040
616  2  15.398118  2.907611 24.384703
617  2  15.790649  5.107436 26.600945
618  2  21.164834  5.107436 26.600945
619  2  11.352025  4.705277 25.701636
620  2  10.717371  6.920512 27.279874
621  1  21.557365  3.946581 23.650040
622  2  19.455995  6.547291 24.384703
623  2  18.477742  3.556043 24.406943
624  2  13.284964  5.821260 27.279874
625  2  19.879280  4.365221 28.842297
626  2  18.477742  3.556043 30.988948
627  1  19.679337  6.418344 31.745852
628  2  21.557365  4.204474 31.011189
629  2  13.919617  0.191573 28.116018
630  1  20.355770  1.084280 31.745852
631  2  17.843088  9.185729 28.116018
632  2  -6.159248 10.668129 30.212448
633  2  17.076203  4.365221 28.842297
634  2  18.477742  1.937685 28.842297
635  2  10.916956  6.302907 31.582599
636  2  15.790649  2.004649 28.794947
637  2  14.419864  4.769269 29.413707
638  2  14.886087  0.366417 30.730641
639  2  16.376371  5.898859 31.011189
640  2  21.164834  2.004649 28.794947
641  2  23.670520  1.290826 28.116018
642  1  11.116899  4.249784 28.679044
643  2  23.035866  2.040391 30.730641
644  2  15.910149 10.301712 29.694255
645  1  15.398118  3.165504 31.745852
646  2  13.720033  6.302907 31.582599
647  2  12.318494  4.009299 31.629949
648  2  13.284964  2.406808 29.694255
649  2  12.953148  1.482400 32.308878
650  2  18.477742  6.658830 28.794947
651  2   7.760370  8.627738 29.694255
652  2  12.318494  8.730443 31.582599
653  2  17.499488  0.564794 31.011189
654  1  10.440466  9.583849 28.679044
655  2   9.238871  6.463654 29.413707
656  2   9.631402  8.663479 31.629949
657  2  15.005587  8.663479 31.629949
658  2  17.511272  8.261320 30.730641
659  2  16.876619 10.476555 32.308878
660  1  15.398118  7.502625 28.679044
661  2  13.296748 10.103334 29.413707
662  2  12.318494  7.112086 29.435948
663  2   7.125716  9.377303 32.308878
664  2  13.720033  7.921264 33.871302
665  2  12.318494  7.112086 36.017953
666  1  13.520090  9.974387 36.774856
667  2  15.398118  7.760517 36.040193
668  2  20.078865  3.747616 33.145022
669  1  14.196522  4.640323 36.774856
670  2  17.843088  2.073643 33.145022
671  2  18.477742  3.556043 35.241452
672  2  10.916956  7.921264 33.871302
673  2  12.318494  5.493728 33.871302
674  2  17.076203  9.858950 36.611603
675  2   9.631402  5.560692 33.823951
676  2   8.260617  8.325312 34.442712
677  2  21.045334  3.922460 35.759645
678  2  10.217124  9.454902 36.040193
679  2  15.005587  5.560692 33.823951
680  2  17.511272  4.846869 33.145022
681  1  17.276146  7.805827 33.708049
682  2  16.876619  5.596434 35.759645
683  2  15.910149  3.189625 34.723260
684  1   9.238870  6.721547 36.774856
685  2   7.560785  9.858950 36.611603
686  2  18.477741  7.565342 36.658954
687  2  19.444211  5.962851 34.723260
688  2  19.112395  5.038443 37.337883
689  2  12.318494 10.214873 33.823951
690  2  20.078865  1.515651 34.723260
691  2  12.318494  1.618357 36.611603
692  2  11.340241  4.120837 36.040193
693  1  22.758961  2.471762 33.708049
694  2  15.398118 10.019697 34.442712
695  2  21.949897  1.551393 36.658954
696  2  15.005587  1.551393 36.658954
697  2  17.511272  1.149234 35.759645
698  2  16.876619  3.364469 37.337883
699  1  15.398118  0.390538 33.708049
700  2  13.296748  2.991248 34.442712
701  2  -6.159248 10.668129 34.464952
702  2  19.444211  2.265216 37.337883
703  2   7.560786 11.477308  8.726280
704  2  -0.000000 -0.000000 10.872931
705  1   7.360843 13.530431 11.629834
706  2   9.238871 11.316561 10.895171
707  2   7.760370 17.971790  8.000000
708  1   1.878028 18.864496 11.629834
709  2   5.524593 16.297816  8.000000
710  2   6.159247 17.780216 10.096430
711  2  17.076203 11.477308  8.726280
712  2  12.318494 19.717902  8.726280
713  2  10.916956 13.414994 11.466581
714  2   9.631402 19.784865  8.678929
715  2  14.419865 11.881356  9.297690
716  2   8.726839 18.146633 10.614623
717  2  16.376372 13.010946 10.895171
718  2   2.687092 19.784865  8.678929
719  2   5.192778 19.071042  8.000000
720  1  11.116899 11.361871  8.563027
721  2   4.558124 19.820607 10.614623
722  2   3.591655 17.413798  9.578238
723  1   9.238871 20.945720 11.629834
724  2  13.720033 13.414994 11.466581
725  2  12.318494 11.121386 11.513932
726  2   7.125716 20.187025  9.578238
727  2   6.793901 19.262616 12.192861
728  2   6.159247 13.770916  8.678929
729  2   7.760370 15.739824  9.578238
730  2  12.318494 15.842530 11.466581
731  2  11.340241 18.345011 10.895171
732  1  10.440466 16.695936  8.563027
733  2   9.238871 13.575741  9.297690
734  2   9.631402 15.775566 11.513932
735  2  15.005587 15.775566 11.513932
736  2   5.192778 15.373407 10.614623
737  2   4.558124 17.588642 12.192861
738  1  15.398118 14.614711  8.563027
739  2  13.296748 17.215421  9.297690
740  2  12.318494 14.224173  9.319930
741  2   7.125716 16.489389 12.192861
742  2  13.720033 15.033351 13.755284
743  2  12.318494 14.224172 15.901935
744  1  13.520090 17.086474 16.658838
745  2  15.398118 14.872604 15.924175
746  2   7.760370 10.859703 13.029004
747  1  14.196523 11.752409 16.658838
748  2  11.683841 19.853859 13.029004
749  2  -0.000000 -0.000000 15.125435
750  2  10.916956 15.033351 13.755284
751  2  12.318494 12.605815 13.755284
752  2   4.757708 16.971037 16.495586
753  2   9.631402 12.672779 13.707933
754  2   8.260617 15.437399 14.326694
755  2   8.726839 11.034547 15.643627
756  2  10.217124 16.566989 15.924175
757  2  15.005587 12.672779 13.707933
758  2  17.511273 11.958956 13.029004
759  1   4.957652 14.917914 13.592031
760  2  16.876619 12.708521 15.643627
761  2   9.750902 20.969841 14.607242
762  1   9.238871 13.833634 16.658838
763  2   7.560786 16.971037 16.495586
764  2   6.159247 14.677429 16.542936
765  2   7.125716 13.074938 14.607242
766  2   6.793901 12.150529 17.221865
767  2  12.318494 17.326960 13.707933
768  2   1.601123 19.295867 14.607242
769  2   6.159247 19.398573 16.495586
770  2  11.340241 11.232924 15.924175
771  1   4.281219 20.251979 13.592031
772  2   3.079623 17.131784 14.326694
773  2   3.472155 19.331609 16.542936
774  2   8.846339 19.331609 16.542936
775  2  11.352025 18.929450 15.643627
776  2  10.717371 21.144685 17.221865
777  1   9.238871 18.170754 13.592031
778  2   7.137500 20.771464 14.326694
779  2   6.159247 17.780216 14.348934
780  2   0.966469 20.045433 17.221865
781  2   7.560786 18.589394 18.784288
782  2   6.159247 17.780216 20.930940
783  1   7.360842 20.642517 21.687843