LAMMPS data file via write_data, version 2 Aug 2023, timestep = 1, units = metal

16 atoms
2 atom types

0 6.6 xlo xhi
0 6.6 ylo yhi
0 6.6 zlo zhi

Masses

1 24.32
2 65.39

Atoms # atomic

1 1 0 0 0 0 0 0
2 2 1.65 1.65 1.65 0 0 0
3 1 0 0 3.3 0 0 0
4 2 1.65 1.65 4.949999999999999 0 0 0
5 1 0 3.2999999999999994 0 0 0 0
6 2 1.65 4.949999999999999 1.65 0 0 0
7 1 0 3.2999999999999994 3.2999999999999994 0 0 0
8 2 1.65 4.949999999999999 4.949999999999999 0 0 0
9 1 3.2999999999999994 0 0 0 0 0
10 2 4.949999999999999 1.65 1.65 0 0 0
11 1 3.2999999999999994 0 3.2999999999999994 0 0 0
12 2 4.949999999999999 1.65 4.949999999999999 0 0 0
13 1 3.2999999999999994 3.2999999999999994 0 0 0 0
14 2 4.949999999999999 4.949999999999999 1.65 0 0 0
15 1 3.2999999999999994 3.2999999999999994 3.2999999999999994 0 0 0
16 2 4.949999999999999 4.949999999999999 4.949999999999999 0 0 0

Velocities

1 0 0 0
2 0 0 0
3 0 0 0
4 0 0 0
5 0 0 0
6 0 0 0
7 0 0 0
8 0 0 0
9 0 0 0
10 0 0 0
11 0 0 0
12 0 0 0
13 0 0 0
14 0 0 0
15 0 0 0
16 0 0 0
