LAMMPS data file via write_data, version 2 Aug 2023, timestep = 79, units = metal

39 atoms
2 atom types

-0.07924551790089585 8.631245517900911 xlo xhi
-0.07924560631815623 8.63124560631818 ylo yhi
-0.07924565875042457 8.631245658750444 zlo zhi
0 0 0 xy xz yz

Masses

1 24.32
2 65.39

Atoms # atomic

12 2 1.902829307605392 -0.07924560631815554 -0.07924565875042457 0 0 0
27 2 1.8208156845680246 1.8208156326492295 1.8208156051750735 0 0 0
1 1 4.276000000000007 2.5766874128969994 -0.07924565875042457 0 0 0
16 2 4.276000000000007 -0.0792456063181544 1.304213684637635 0 0 0
38 2 4.276000000000007 2.01167014554487 2.90920602132416 0 0 0
5 1 2.5766874549879466 -0.07924560631815544 4.27600000000001 0 0 0
34 2 2.0116701780759616 2.909206017566957 4.27600000000001 0 0 0
7 2 4.276000000000008 4.276000000000015 4.2760000000000105 0 0 0
8 2 8.63124551790091 1.9028292550373782 -0.07924565875042457 -1 0 0
10 2 8.63124551790091 -0.07924560631815478 1.9028292436930314 -1 0 0
13 2 6.6491706923946206 -0.07924560631815535 -0.07924565875042457 0 0 0
20 2 6.731184315431989 1.820815632649229 1.8208156051750735 0 0 0
19 2 7.247786212213763 4.276000000000011 -0.07924565875042414 0 0 0
33 2 6.5403298219240495 2.909206017566958 4.27600000000001 0 0 0
18 2 1.3042137877862494 4.276000000000012 -0.07924565875042457 0 0 0
22 2 1.8208156845680237 6.731184367350796 1.8208156051750735 0 0 0
30 2 2.90920604130628 4.276000000000013 2.0116701419603316 0 0 0
2 1 4.276000000000007 5.975312587103026 -0.07924565875042457 0 0 0
37 2 4.276000000000007 6.5403298544551545 2.909206021324161 0 0 0
32 2 2.011670178075962 5.642793982433068 4.276000000000008 0 0 0
3 1 8.63124551790091 4.276000000000012 2.576687395841532 -1 0 0
9 2 8.63124551790091 6.649170744962645 -0.07924565875042457 -1 0 0
25 2 6.731184315431989 6.731184367350797 1.820815605175075 0 0 0
28 2 5.642793958693732 4.276000000000014 2.0116701419603324 0 0 0
35 2 6.540329821924049 5.6427939824330675 4.27600000000001 0 0 0
21 2 1.8208156845680232 1.8208156326492289 6.731184394824945 0 0 0
36 2 4.276000000000006 2.011670145544871 5.6427939786758605 0 0 0
11 2 8.63124551790091 -0.07924560631815529 6.649170756306989 -1 0 0
14 2 8.63124551790091 1.3042136788946423 4.2760000000000105 -1 0 0
6 1 5.975312545012065 -0.07924560631815544 4.2760000000000105 0 0 0
17 2 4.276000000000008 -0.07924560631815503 7.247786315362384 0 0 0
26 2 6.731184315431989 1.820815632649229 6.731184394824945 0 0 0
24 2 1.8208156845680232 6.731184367350797 6.731184394824945 0 0 0
29 2 2.90920604130628 4.276000000000013 6.540329858039688 0 0 0
39 2 4.276000000000006 6.540329854455154 5.642793978675859 0 0 0
4 1 8.63124551790091 4.276000000000012 5.9753126041584865 -1 0 0
15 2 8.63124551790091 7.247786321105384 4.2760000000000105 -1 0 0
23 2 6.731184315431989 6.731184367350798 6.731184394824944 0 0 0
31 2 5.642793958693732 4.276000000000013 6.540329858039686 0 0 0

Velocities

12 0 0 0
27 0 0 0
1 0 0 0
16 0 0 0
38 0 0 0
5 0 0 0
34 0 0 0
7 0 0 0
8 0 0 0
10 0 0 0
13 0 0 0
20 0 0 0
19 0 0 0
33 0 0 0
18 0 0 0
22 0 0 0
30 0 0 0
2 0 0 0
37 0 0 0
32 0 0 0
3 0 0 0
9 0 0 0
25 0 0 0
28 0 0 0
35 0 0 0
21 0 0 0
36 0 0 0
11 0 0 0
14 0 0 0
6 0 0 0
17 0 0 0
26 0 0 0
24 0 0 0
29 0 0 0
39 0 0 0
4 0 0 0
15 0 0 0
23 0 0 0
31 0 0 0
