128
Lattice="10.867762548384 0.0 0.0 0.0 17.632728521922 0.0 0.0 0.0 32.895470613528" Properties=species:S:1:pos:R:3:forces:R:3:energies:R:1 energy=-300.2818139031644 stress="0.0004129239050955652 1.9977534708497872e-05 4.293976045351234e-06 1.9977534708497872e-05 0.00032966320439197704 -7.661176063243362e-06 4.293976045351234e-06 -7.661176063243362e-06 -1.4968341327070588e-06" free_energy=-300.2818139031644 pbc="T T F"
Zn       3.73067376      11.47349913      20.82078443      -0.01482340      -0.02356583      -0.00850496      -1.50212731
Zn       4.12255095       0.64196180      20.90397844       0.01927891      -0.00084160      -0.00166965      -1.20344533
Zn       9.64027802      10.95720553      20.21324814       0.00353763       0.00055542       0.00119700      -0.45629297
Zn       9.58945526       2.15951947      20.11171516       0.00367654       0.00977187      -0.01073058      -0.47822504
Zn       6.74521159      16.99076671      11.99149208      -0.01927876       0.00084201       0.00167113      -1.20344540
Zn       7.13708874       6.15922936      12.07468616       0.01482439       0.02356635       0.00850519      -1.50212723
Zn       1.27830729      15.47320905      12.78375545      -0.00367653      -0.00977180       0.01073058      -0.47822506
Zn       1.22748453       6.67552300      12.68222248      -0.00353763      -0.00055544      -0.00119702      -0.45629297
Mg       6.93373237       9.02995349      20.18054983       0.00160875      -0.00474978      -0.03924567      -2.03644459
Mg       7.02601479       0.35086769      20.20270907       0.00615713       0.00562597      -0.02071479      -1.91951438
Mg       1.37992864       9.19738260      20.02618173       0.03401149       0.01508872       0.00927964      -1.92670195
Mg       1.22149533       0.36483327      20.06893363      -0.00494113       0.00397264      -0.00436679      -1.94682723
Mg       4.02292177      13.57907442      12.74204649       0.01373668       0.01743696      -0.04389081      -2.04861652
Mg       4.21896642       4.85537367      12.72315805      -0.00120291       0.00268744       0.01172354      -1.91624477
Mg       9.53071585      13.56416707      12.82644045      -0.00131163       0.00067043       0.00109044      -2.06116837
Mg       9.74742056       4.74925307      12.77357029      -0.02613738      -0.00812531      -0.02305583      -1.94168007
Mg       9.48783390       8.43534593      12.86928887      -0.03401112      -0.01508856      -0.00927931      -1.92670199
Mg       3.93403017       8.60277505      12.71492079      -0.00160874       0.00474979       0.03924563      -2.03644459
Mg       9.64626715      17.26789520      12.82653687       0.00494237      -0.00397191       0.00436859      -1.94682721
Mg       3.84174783      17.28186077      12.69276145      -0.00615847      -0.00562524       0.02071658      -1.91951437
Mg       1.12034197      12.88347547      20.12190028       0.02613782       0.00812523       0.02305641      -1.94168004
Mg       1.33704667       4.06856150      20.06903007       0.00131219      -0.00067136      -0.00108818      -2.06116829
Mg       6.64879616      12.77735488      20.17231256       0.00120255      -0.00268776      -0.01172311      -1.91624478
Mg       6.84484078       4.05365410      20.15342417      -0.01373662      -0.01743681       0.04389030      -2.04861652
Zn       5.49851924       6.57243571      19.24185793      -0.00716858       0.01409918      -0.00240296      -0.93037451
Zn       5.41847551      15.42495478      19.35401807      -0.00553991       0.00354438      -0.00875841      -0.90967087
Zn       0.09286736       6.61495441      19.23180510       0.00393028      -0.01420869       0.00039698      -0.94736411
Zn       0.06831995      15.41232040      19.24302563      -0.00809416      -0.01035445       0.01240582      -0.94800866
Zn       5.36924331      11.06029282      13.65361269       0.00716859      -0.01409919       0.00240297      -0.93037451
Zn       5.44928704       2.20777374      13.54145254       0.00553988      -0.00354438       0.00875840      -0.90967086
Zn      10.77489518      11.01777412      13.66366551      -0.00393029       0.01420874      -0.00039697      -0.94736410
Zn      10.79944261       2.22040813      13.65244498       0.00809406       0.01035438      -0.01240588      -0.94800866
Zn       8.22198122      11.06071561      13.72018652      -0.01527681      -0.01031309       0.00399951      -0.92385275
Zn       2.77558878      11.08089445      13.62211313       0.00500386      -0.01559066      -0.01519770      -0.94246151
Zn       8.24883648       2.18037528      13.70269781      -0.00628623       0.00600989      -0.00584153      -0.92613456
Zn       2.87134895       2.23902050      13.52289700       0.00884362       0.00290486       0.00122254      -0.91975866
Zn       2.61892606      15.45235325      19.19277279       0.00628628      -0.00600994       0.00584150      -0.92613456
Zn       2.64578133       6.57201291      19.17528409       0.01527684       0.01031314      -0.00399950      -0.92385276
Zn       7.99641359      15.39370804      19.37257361      -0.00884352      -0.00290497      -0.00122260      -0.91975867
Zn       8.09217377       6.55183408      19.27335748      -0.00500388       0.01559066       0.01519773      -0.94246151
Zn       4.08621884       8.71834160      18.56286326       0.00197073       0.00601425       0.00090421      -1.00599534
Zn       4.04900675      17.55360639      18.47429090       0.00433150      -0.00769745      -0.02429023      -1.16556327
Zn       9.51956189       8.75531012      18.75240867      -0.00118695      -0.00198746       0.01492559      -1.15184403
Zn       9.50596244      17.56290876      18.75472855      -0.00572827      -0.01110063       0.00623383      -1.16157859
Zn       6.77778153      13.19752885      14.29294091       0.00957057      -0.01543552      -0.00364745      -1.01300712
Zn       6.84525480       4.35886354      14.30328970      -0.01016495       0.00189096       0.00839190      -1.06332552
Zn       1.34268842      13.21928100      14.13917399      -0.00779049      -0.00466006      -0.00087071      -1.14223226
Zn       1.47108017       4.39451292      14.01299869       0.00368431       0.01336671       0.01071561      -1.13938163
Zn       6.78154371       8.91438693      14.33260736      -0.00197074      -0.00601426      -0.00090421      -1.00599534
Zn       1.34820066       8.87741841      14.14306195       0.00118694       0.00198746      -0.01492559      -1.15184403
Zn       6.81875580       0.07912215      14.42117973      -0.00433152       0.00769735       0.02428998      -1.16556325
Zn       1.36180010       0.06981977      14.14074206       0.00572830       0.01110056      -0.00623392      -1.16157858
Zn       4.02250776      13.27386498      18.59218090       0.01016493      -0.00189094      -0.00839186      -1.06332552
Zn       4.08998103       4.43519967      18.60252970      -0.00957057       0.01543553       0.00364746      -1.01300712
Zn       9.39668237      13.23821559      18.88247193      -0.00368432      -0.01336663      -0.01071562      -1.13938163
Zn       9.52507414       4.41344753      18.75629662       0.00779043       0.00466001       0.00087071      -1.14223227
Zn       8.03243661      10.97685665      18.18149909      -0.01426394      -0.00058668      -0.00584469      -1.22252513
Zn       8.02569811       2.20402009      18.08062997      -0.00682887       0.00122216       0.01286491      -1.21105401
Zn       2.74649104      11.03854721      18.08350984       0.00055701      -0.00915130       0.00919958      -1.18056713
Zn       2.77720136       2.22637554      17.99344644      -0.00191360      -0.00174237      -0.00043400      -1.12574147
Zn       2.84206443      15.42870843      14.81484065       0.00682884      -0.00122210      -0.01286497      -1.21105401
Zn       2.83532593       6.65587188      14.71397153       0.01426400       0.00058666       0.00584472      -1.22252513
Zn       8.09056119      15.40635299      14.90202418       0.00191355       0.00174238       0.00043400      -1.12574147
Zn       8.12127150       6.59418131      14.81196077      -0.00055697       0.00915129      -0.00919956      -1.18056712
Zn      10.77920803       6.60883175      14.90051520      -0.00460059       0.00178381       0.00374696      -1.20767663
Zn       5.50978866       6.67784979      14.78791672      -0.01480189      -0.00197362      -0.00355364      -1.12400302
Zn      10.72101354      15.40410071      14.94150426       0.01304316      -0.00194044      -0.01880583      -1.21124645
Zn       5.48779406      15.43967634      14.74503354      -0.01547153      -0.01078846       0.00514285      -1.12134779
Zn       0.08855452      11.02389677      17.99495542       0.00460055      -0.00178382      -0.00374695      -1.20767663
Zn       0.14674901       2.22862780      17.95396635      -0.01304316       0.00194046       0.01880577      -1.21124646
Zn       5.35797390      10.95487873      18.10755389       0.01480185       0.00197362       0.00355366      -1.12400302
Zn       5.37996848       2.19305218      18.15043707       0.01547160       0.01078847      -0.00514283      -1.12134780
Mg       6.78322988       4.96010069      17.13491816       0.00330963      -0.00407480      -0.00207957      -1.63991625
Mg       6.75763185      13.75810100      17.19447535      -0.01171838       0.01470900      -0.00242116      -1.63465235
Mg       1.39426724       4.97437675      16.99795440      -0.00496613       0.00522200       0.00362407      -1.61744443
Mg       1.36660465      13.79050955      17.06104744       0.00689344       0.00782435      -0.00682962      -1.61269676
Mg       4.08326957       9.38773909      15.74296240      -0.00172017       0.01069480      -0.01169736      -1.63792985
Mg       4.12029566       0.57990639      15.70588580      -0.00337407      -0.00009000      -0.00484708      -1.63926994
Mg       9.48644561       9.39059593      15.86426432      -0.00684654       0.00092317       0.00185372      -1.60860736
Mg       9.47679062       0.56391289      15.87604387       0.00674550      -0.00841544      -0.00223061      -1.61255661
Mg       9.47349530      12.65835177      15.89751622       0.00496614      -0.00522200      -0.00362418      -1.61744444
Mg       4.08453267      12.67262784      15.76055246      -0.00330962       0.00407478       0.00207959      -1.63991624
Mg       9.50115790       3.84221897      15.83442318      -0.00689344      -0.00782435       0.00682959      -1.61269676
Mg       4.11013070       3.87462752      15.70099527       0.01171839      -0.01470899       0.00242114      -1.63465235
Mg       1.39097192      17.06881564      17.01942674      -0.00674549       0.00841541       0.00223051      -1.61255660
Mg       1.38131695       8.24213259      17.03120630       0.00684654      -0.00092317      -0.00185373      -1.60860736
Mg       6.74746689      17.05282214      17.18958482       0.00337407       0.00008996       0.00484699      -1.63926993
Mg       6.78449298       8.24498942      17.15250821       0.00172018      -0.01069479       0.01169737      -1.63792985
Zn       4.09028053       6.58108909      16.93425482       0.01146855      -0.00052826       0.01095184      -1.20779053
Zn       4.15215789      15.40462229      16.98333163       0.00054761       0.00897279      -0.00830885      -1.21150863
Zn       9.44908345       6.58736674      17.05312614       0.01563813       0.00860919      -0.00426883      -1.20754129
Zn       9.40791888      15.38706953      17.13215326      -0.00303420      -0.00222935       0.00186104      -1.20563706
Zn       6.77748202      11.05163944      15.96121581      -0.01146856       0.00052826      -0.01095189      -1.20779052
Zn       6.71560466       2.22810624      15.91213898      -0.00054761      -0.00897275       0.00830893      -1.21150863
Zn       1.41867910      11.04536178      15.84234448      -0.01563813      -0.00860918       0.00426876      -1.20754129
Zn       1.45984367       2.24565899      15.76331736       0.00303419       0.00222936      -0.00186103      -1.20563706
O        6.68013706       9.61235378      21.95826797      -0.02535412       0.03289345       0.01238538      -7.11172285
O        5.86815852       0.88542768      21.66322478      -0.02908873      -0.02317909      -0.00002755      -7.36588204
O        2.71179481       9.79243913      21.32606984      -0.01560628       0.01780628       0.01469412      -7.39687656
O        2.34276503       0.91849278      21.55645555      -0.01169511       0.00314090       0.02192134      -7.36378949
O        4.36550201      14.27790237      11.01127961      -0.01433448      -0.02351045       0.00897696      -7.15368665
O        5.33259443       5.78133459      11.42976838       0.03359874      -0.01839228      -0.03148627      -7.37910147
O        9.11154380      14.23085941      11.10483072      -0.00101016       0.01900633      -0.00969107      -7.13682206
O        8.55427967       4.97174920      11.24573328       0.02383987      -0.00376569       0.01144643      -7.38525516
O        8.15596776       7.84028945      11.56940080       0.01560553      -0.01780705      -0.01469436      -7.39687655
O        4.18762547       8.02037474      10.93720265       0.02535418      -0.03289364      -0.01238530      -7.11172283
O        8.52499745      16.71423570      11.33901518       0.01169557      -0.00314053      -0.02192318      -7.36378959
O        4.99960410      16.74730083      11.23224596       0.02908817       0.02317913       0.00002550      -7.36588208
O        2.31348292      12.66097934      21.64973734      -0.02384029       0.00376614      -0.01144675      -7.38525514
O        1.75621875       3.40186900      21.79063998       0.00100963      -0.01900492       0.00968946      -7.13682216
O        5.53516813      11.85139392      21.46570226      -0.03359883       0.01839229       0.03148570      -7.37910142
O        6.50226054       3.35482612      21.88419100       0.01433433       0.02351049      -0.00897722      -7.15368670
H        6.50173408       9.08373727      22.74758729       0.02006690      -0.01623872       0.03910237      -3.55099292
H        6.06246459       1.86847341      21.90602375      -0.01405834       0.01436707      -0.00056824      -3.73000149
H        2.57765693       9.76431511      22.28944979      -0.01510586       0.03555687      -0.02027510      -3.51489597
H        2.16245536       1.90335162      21.80519431       0.00605561      -0.00152233       0.00392890      -3.73329124
H        4.13954591      13.90267287      10.14782572      -0.00241839       0.00066567       0.03156565      -3.54236121
H        4.92213324       6.65150030      11.06938063      -0.01455082       0.00587690      -0.00427809      -3.74301419
H        9.12127439      13.77338562      10.25188871       0.00848444       0.00869609       0.01542181      -3.54501597
H        8.16611311       4.18186225      10.83501955      -0.01471893      -0.02692391       0.01876739      -3.52064303
H        8.29010555       7.86841349      10.60602083       0.01510595      -0.03555677       0.02027505      -3.51489597
H        4.36602831       8.54899120      10.14788327      -0.02006689       0.01623878      -0.03910240      -3.55099293
H        8.70530720      15.72937697      11.09027632      -0.00605575       0.00152101      -0.00392905      -3.73329120
H        4.80529796      15.76425519      10.98944687       0.01405845      -0.01436821       0.00056807      -3.73000144
H        2.70164948      13.45086632      22.06045104       0.01471882       0.02692357      -0.01876760      -3.52064305
H        1.74648816       3.85934292      22.64358193      -0.00848440      -0.00869649      -0.01542247      -3.54501598
H        5.94562932      10.98122819      21.82608998       0.01455062      -0.00587659       0.00427797      -3.74301421
H        6.72821666       3.73005563      22.74764486       0.00241849      -0.00066549      -0.03156499      -3.54236120
