LAMMPS data file via write_data, version 2 Aug 2023, timestep = 141, units = metal

39 atoms
2 atom types

0 8.552 xlo xhi
0 8.552 ylo yhi
0 8.552 zlo zhi

Masses

1 24.32
2 65.39

Atoms # atomic

8 2 2.7541321526074765e-16 1.9511460578333826 3.4301802980042836e-16 0 0 0
10 2 0 3.1291671136797017e-16 1.951146057833383 0 0 0
12 2 1.9511460578333826 1.0096752452416892e-16 1.8855835725555437e-16 0 0 0
27 2 1.8643607926588974 1.8643607926588976 1.8643607926588976 0 0 0
1 1 4.276 2.6024579189026573 0 0 0 0
13 2 6.600853942166617 4.86548432555824e-16 1.0423988488196569e-16 0 0 0
16 2 4.276 0 1.3590871037754582 0 0 0
20 2 6.687639207341102 1.8643607926588979 1.8643607926588976 0 0 0
38 2 4.276 2.0425113295893373 2.9373405101704373 0 0 0
3 1 0 4.276 2.602457918902657 0 0 0
9 2 0 6.600853942166617 9.07975553904979e-16 0 0 0
18 2 1.3590871037754582 4.276 0 0 0 0
22 2 1.8643607926588979 6.687639207341102 1.864360792658898 0 0 0
30 2 2.9373405101704377 4.276 2.042511329589337 0 0 0
2 1 4.276 5.949542081097342 0 0 0 0
19 2 7.192912896224541 4.276 0 0 0 0
25 2 6.6876392073411015 6.687639207341102 1.8643607926588979 0 0 0
28 2 5.614659489829562 4.276 2.042511329589337 0 0 0
37 2 4.276 6.509488670410662 2.9373405101704373 0 0 0
5 1 2.602457918902657 0 4.276 0 0 0
11 2 1.9951568159123517e-16 4.347182001086427e-17 6.600853942166617 0 0 0
14 2 0 1.3590871037754582 4.276 0 0 0
21 2 1.864360792658898 1.8643607926588979 6.687639207341102 0 0 0
34 2 2.042511329589337 2.9373405101704373 4.276 0 0 0
6 1 5.949542081097342 2.2176698959865055e-16 4.276 0 0 0
17 2 4.276 0 7.192912896224541 0 0 0
26 2 6.687639207341102 1.8643607926588979 6.6876392073411015 0 0 0
33 2 6.509488670410662 2.9373405101704377 4.276 0 0 0
36 2 4.276 2.0425113295893365 5.614659489829562 0 0 0
4 1 0 4.276 5.949542081097342 0 0 0
15 2 0 7.192912896224541 4.276 0 0 0
24 2 1.8643607926588979 6.687639207341102 6.687639207341102 0 0 0
29 2 2.9373405101704373 4.276 6.509488670410662 0 0 0
32 2 2.042511329589337 5.614659489829562 4.276 0 0 0
7 2 4.276 4.276 4.275999999999999 0 0 0
23 2 6.687639207341102 6.687639207341102 6.6876392073411015 0 0 0
31 2 5.614659489829562 4.276 6.509488670410663 0 0 0
35 2 6.509488670410662 5.614659489829562 4.276 0 0 0
39 2 4.276 6.509488670410663 5.614659489829562 0 0 0

Velocities

8 -9.175408674546385e-16 -2.1161465615554216e-05 6.580558123467722e-16
10 -4.74211597244977e-15 -2.2010707617307454e-15 -2.1161465613553728e-05
12 -2.1161465616639066e-05 6.34376335345341e-15 6.473114728502809e-15
27 -4.742091082521977e-06 -4.7420910801192865e-06 -4.7420910875263575e-06
1 3.244871174475481e-15 -2.3847843523352713e-05 -2.1719941127021216e-15
13 2.1161465621931063e-05 -6.032048464657947e-15 -3.4866256251904373e-15
16 -1.794226478953097e-15 -3.4651759332433464e-15 -2.4116926696800965e-05
20 4.7420910772490595e-06 -4.742091088633098e-06 -4.7420910860891e-06
38 7.05786563667981e-15 -8.138959047408479e-06 -7.793331951697024e-06
3 -5.929586760336661e-16 1.4418406634048594e-15 -2.3847843513525877e-05
9 -1.055537861994158e-14 2.116146561966422e-05 2.790568665972925e-15
18 -2.4116926696490043e-05 1.2806459206052555e-15 -6.197593902352917e-15
22 -4.742091084964347e-06 4.742091075645813e-06 -4.742091087790953e-06
30 -7.793331949496595e-06 -2.7703635108173333e-16 -8.138959047080558e-06
2 -2.5487572918532533e-15 2.3847843536142596e-05 1.1823785135437545e-15
19 2.4116926707418862e-05 -8.934738401265073e-16 -3.1242837026433282e-15
25 4.742091081252175e-06 4.74209107608725e-06 -4.742091089231582e-06
28 7.793331950906947e-06 8.52662714350294e-15 -8.138959037328704e-06
37 -2.455184977826039e-15 8.138959056849916e-06 -7.793331956694297e-06
5 -2.3847843522601673e-05 1.7967930632508745e-16 4.215266796376498e-15
11 -6.980249410350216e-15 -1.1039951372191904e-14 2.1161465623712014e-05
14 3.227365719823789e-15 -2.4116926696988512e-05 -1.3577221021892779e-15
21 -4.742091088767549e-06 -4.742091084054307e-06 4.7420910724440194e-06
34 -8.138959067049216e-06 -7.79333195432527e-06 6.074793219184054e-15
6 2.3847843535093027e-05 2.731397922665591e-15 1.4861337616257625e-15
17 -9.104101326472595e-16 -8.085313302943977e-16 2.4116926702699706e-05
26 4.742091070512101e-06 -4.742091081332052e-06 4.742091079369803e-06
33 8.138959058069222e-06 -7.793331955152504e-06 -2.162864250648511e-15
36 1.0685216836804245e-14 -8.1389590494606e-06 7.793331952677121e-06
4 1.4006624956118422e-15 -1.2057754383707274e-15 2.3847843534277487e-05
15 -2.7966928273240244e-15 2.411692671063206e-05 -1.2382175082203608e-15
24 -4.742091069757851e-06 4.742091054768154e-06 4.74209105475964e-06
29 -7.793331950857943e-06 1.3599844712109276e-14 8.138959058562464e-06
32 -8.138959036370642e-06 7.793331950223234e-06 1.0389894226428769e-14
7 -2.0244206800787817e-14 -1.8246529408667576e-14 -2.1367441688374362e-14
23 4.742091097413961e-06 4.742091100256825e-06 4.742091091940112e-06
31 7.79333194986667e-06 -8.011120713154431e-15 8.13895905724066e-06
35 8.138959057295288e-06 7.79333195307305e-06 -8.731468092468838e-15
39 -1.016184013655121e-14 8.138959062754649e-06 7.793331959121073e-06
