LAMMPS data file via write_data, version 2 Aug 2023, timestep = 9, units = metal

12 atoms
2 atom types

-0.05600496434473141 5.279004964344742 xlo xhi
-0.04850172120231042 4.571752405168433 ylo yhi
-0.05537868011505845 8.621378680115054 zlo zhi
-2.6675049635846264 0 0 xy xz yz

Masses

1 24.32
2 65.39

Atoms # atomic

1 1 -0.056004977060313536 3.031667664979246 3.7376885702703126 0 0 0
4 1 -0.056004977060313536 3.031667664979246 0.4899327496146321 0 0 0
6 2 5.2790049643447405 -0.0485017212023091 -0.05537868011505584 -1 0 0
7 2 3.92677038097621 0.7322112059342074 2.1138106599424726 0 0 0
8 2 2.6114999699624915 3.01032641294584 2.1138106599424726 0 0 0
9 2 1.2962295650064029 0.7322112096321416 2.1138106599424726 0 0 0
5 2 5.2790049643447405 -0.048501721202308876 4.2829999999999995 -1 0 0
10 2 -1.371275344560829 3.7910394780319177 6.452189340057527 0 0 0
11 2 -0.05600493354710855 1.5129242710202855 6.452189340057528 0 0 0
12 2 1.2592654714089777 3.7910394743339837 6.452189340057527 0 0 0
2 1 2.6115000134756956 1.491583018986879 4.828311429729688 0 0 0
3 1 2.611500013475696 1.4915830189868793 8.07606725038537 0 0 0

Velocities

1 0 0 0
4 0 0 0
6 0 0 0
7 0 0 0
8 0 0 0
9 0 0 0
5 0 0 0
10 0 0 0
11 0 0 0
12 0 0 0
2 0 0 0
3 0 0 0
