LAMMPS data file via write_data, version 2 Aug 2023, timestep = 133, units = metal

276 atoms
2 atom types

-0.17258897930808778 25.948388979308078 xlo xhi
-0.14946644049116287 22.471964043358096 ylo yhi
-0.012735272202389387 8.775135272202387 zlo zhi
-13.060488979304768 0 0 xy xz yz

Masses

1 24.32
2 65.39

Atoms # atomic

138 2 -0.9741246064291079 3.875842240202833 2.1841189998030885 0 0 0
237 2 -0.9603300220164444 1.2149410686870095 2.184232363898798 0 0 0
272 2 25.948388979308064 -0.14946644049115526 8.775135272202387 -1 0 -1
39 1 1.3482421248461318 2.4863796849942443 3.816958790035883 0 0 0
48 1 1.3497051737533767 2.485534993313851 0.5515059377615479 0 0 0
129 2 3.7141984098090837 1.169037684730347 2.1843457279943297 0 0 0
174 2 3.643769713327287 3.8187967923564456 2.167983795329466 0 0 0
235 2 -11.657595873195678 22.47196404335809 2.184232363898798 0 -1 0
3 1 5.8692620374098885 -0.10841642294155303 3.936181456754843 0 0 0
84 1 6.638119054633021 2.2941608713850035 2.188136395752027 0 0 0
206 2 4.443217559595106 2.5322889712484127 4.378325234990993 0 0 0
23 1 9.831424133617594 2.179138929876323 3.36157345251111 0 0 0
118 1 8.891775987456118 0.46952056438811096 0.719587273164802 0 0 0
180 2 9.0715413073657 3.422747154610988 0.7358358417340123 0 0 0
183 2 11.359462577766894 2.101815193260385 0.7033387045955545 0 0 0
253 2 -1.6142499475909897 22.471964043358067 2.184232363898798 0 -1 0
18 1 15.873275150335214 2.138088912326926 2.4715363660207643 0 0 0
93 1 14.177010687503731 0.27095055637055754 0.7234913050179071 0 0 0
144 2 13.689435627122089 3.3657017067645985 0.7197006372603854 0 0 0
220 2 12.873334956147998 2.0527269599458124 2.913680144257048 0 0 0
89 1 18.40949734643745 2.7145778682467316 0.7156832413114604 0 0 0
109 1 17.956140954219723 -0.14946644049107694 2.184232363898838 0 0 0
173 2 20.603592864439992 1.1714655208595106 2.1679837953296057 0 0 0
205 2 21.31801739655352 2.5070615752820444 4.378325234991093 0 0 0
268 2 18.69731400551109 2.372256951303683 3.6488774546329674 0 0 0
38 1 9.844774742788497 22.47111935167772 3.8169587900360247 0 -1 0
128 2 22.863137217313326 2.557338114981301 2.1843457279944536 0 0 0
12 1 -3.157964129642234 5.103455034640505 0.4322832710427121 0 0 0
75 1 -1.4616996668107511 6.97059339059688 2.1803283320455646 0 0 0
124 1 -4.1687129918508665 8.009997392337866 3.6488774546330585 0 0 0
202 2 -0.1580239354550151 5.188816987021619 -0.009860507193572385 0 0 0
105 1 1.1165217081967662 7.811427384320311 3.652781486486167 0 0 0
110 1 3.8235350332368747 6.772023382579328 2.1842323638986723 0 0 0
165 2 1.3558484429260949 5.139728753707045 2.2004809324679213 0 0 0
264 2 1.2690719889792088 7.391010387458633 0.7195872731646767 0 0 0
16 1 6.846048983283244 7.4320604050082855 2.4715363660207994 0 0 0
90 1 6.077191966059973 4.947383075582431 0.715683241311449 0 0 0
216 2 8.25752841724575 4.734482371685425 2.9194296742748898 0 0 0
269 2 5.636825026203426 4.869286995663916 3.6488774546329346 0 0 0
54 1 11.36560584693962 4.756008953653582 2.3523136993019276 0 0 0
59 1 9.84477474278633 7.391855079139066 3.480796119229935 0 0 0
142 2 9.00111261088435 8.709514512680101 0.7197006372602615 0 0 0
147 2 9.001112610883908 6.072506262237088 0.7194739090691467 0 0 0
246 2 11.312417914583895 7.391010387458607 0.7195872731646816 0 0 0
53 1 15.93102525721584 7.390165695778126 2.352313699301798 0 0 0
58 1 14.408731104154306 4.755164261973195 3.4807961192299466 0 0 0
146 2 15.973151761995823 4.684205831986134 0.7194739090690225 0 0 0
244 2 13.675641042709962 8.755417896636736 0.7195872731646519 0 0 0
245 2 13.675641042709431 6.0266028782804275 0.7195872731646791 0 0 0
274 2 12.887900000001087 7.391010387458595 2.91655490926587 0 0 0
22 1 18.92975101671893 7.349960369908901 3.3615734525109326 0 0 0
83 1 20.426791632871694 4.526966078720705 2.1881363957520152 0 0 0
120 1 20.880148025089415 7.391010387458515 0.7195872731646353 0 0 0
179 2 18.232696114869153 6.070078426107935 0.7358358417338695 0 0 0
182 2 18.232696114869512 8.711942348809055 0.7033387045953721 0 0 0
215 2 17.50370653890333 4.709254975719025 2.9194296742747867 0 0 0
2 1 22.891913112926293 5.062405017090986 3.9361814567548032 0 0 0
102 1 -6.983297013247012 12.487859903532188 3.6449734227797044 0 0 0
224 2 -4.7883955182091 12.249731803668784 1.4547845835407396 0 0 0
25 1 -3.157964129641732 9.67856574027655 1.0068912752867214 0 0 0
69 1 -1.6934200834601174 12.295641089922944 2.0161510284958504 0 0 0
192 2 -3.988947671941281 10.963223982560741 3.665126023202266 0 0 0
195 2 -1.7010264015400822 9.642292021210146 3.6326288860638107 0 0 0
231 2 -0.15802393545458132 9.593203787895549 1.4490350535229373 0 0 0
32 1 2.8838868870758865 9.719615757826206 1.89692836177693 0 0 0
61 1 1.3497051737545787 12.296485781603335 0.8876686085677483 0 0 0
156 2 0.6289466478151228 10.906178534714353 3.648990818728643 0 0 0
158 2 2.9126627826888454 12.224682659935883 3.6487640905372785 0 0 0
91 1 6.077191966060584 9.834637699334742 0.7234913050179177 0 0 0
101 1 5.349008367130479 10.255054696196487 3.644973422779717 0 0 0
221 2 8.272093461098828 10.072765799198164 2.9136801442569458 0 0 0
223 2 4.457782603448647 12.274959199635157 1.454784583540638 0 0 0
254 2 7.07848599449108 12.409763823613504 2.1842323638987646 0 0 0
24 1 9.902524849666946 12.643931862590268 3.3615734525109704 0 0 0
52 1 11.367068895847867 10.026856512943997 2.3523136993017877 0 0 0
178 2 11.359462577768705 12.680205581656766 0.735835841733827 0 0 0
181 2 9.07154130736709 11.359273620306132 0.7033387045954129 0 0 0
214 2 12.902465043854162 12.72929381497138 2.919429674274686 0 0 0
17 1 15.944375866384583 12.602881845040878 2.471536366020622 0 0 0
60 1 14.410194153062562 10.026011821263607 3.4807961192298063 0 0 0
143 2 15.973151761996764 10.097814942931073 0.7197006372601836 0 0 0
145 2 13.689435627123517 11.416319068152614 0.719473909068943 0 0 0
92 1 18.409497346438886 12.067442906670488 0.7234913050178531 0 0 0
222 2 17.51827158275642 10.047538403231766 2.9136801442568454 0 0 0
255 2 -5.9820029848174086 9.912733779253267 2.184232363898797 0 0 0
111 1 16.88402401254603 15.550474220287898 2.184232363898838 -1 0 0
33 1 -6.214439996023878 14.890437197858747 1.8969283617768917 0 0 0
103 1 -6.983297013246399 17.3751145272845 3.652781486486177 0 0 0
229 2 -4.802960562060445 17.588015231181547 1.4490350535228347 0 0 0
262 2 -7.4236639531028725 17.453210607203193 0.7195872731647083 0 0 0
62 1 -3.2157142365206917 14.930642523727968 0.8876686085677629 0 0 0
67 1 -1.6948831323663653 17.566488649213365 2.016151028495724 0 0 0
154 2 -4.059376368422645 16.249991340629858 3.648990818728517 0 0 0
159 2 -4.059376368423069 13.612983090186837 3.648764090537404 0 0 0
252 2 -1.7480710647230882 14.931487215408366 3.6488774546329354 0 0 0
63 1 1.348242124848333 17.567333340893747 0.8876686085676229 0 0 0
68 1 2.8705362779089016 14.932331907088725 2.01615102849571 0 0 0
155 2 2.9126627826897935 17.638291770880812 3.648990818728439 0 0 0
250 2 0.6151520634029742 16.295894724586482 3.6488774546329092 0 0 0
251 2 0.6151520634024513 13.567079706230182 3.6488774546329354 0 0 0
275 2 -0.17258897930590786 14.931487215408351 1.4519098185317405 0 0 0
27 1 5.8692620374120885 14.972537232957963 1.0068912752865824 0 0 0
74 1 7.3663026535654845 17.795531524146234 2.1803283320456184 0 0 0
126 1 7.819659045782455 14.931487215408271 3.6488774546328906 0 0 0
191 2 5.172207135562172 13.610555254057692 3.6651260232021245 0 0 0
194 2 5.172207135562536 16.252419176758806 3.632628886063633 0 0 0
230 2 4.4432175595973025 17.613242627147926 1.4490350535227359 0 0 0
1 1 9.902524849667456 17.219042568226325 3.9361814567549818 0 0 0
11 1 9.831424133619787 17.26009258577584 0.432283271042852 0 0 0
82 1 11.598789312498566 15.35190421227004 2.188136395752079 0 0 0
119 1 8.891775987458342 14.312500210528805 0.719587273164632 0 0 0
207 2 12.902465043854596 17.13368061584531 4.378325234991195 0 0 0
88 1 14.177010687505794 14.511070218546674 0.7156832413113947 0 0 0
172 2 14.416337422235665 17.18276884915995 2.1679837953296484 0 0 0
270 2 14.329560968288385 14.93148721540839 3.648877454632933 0 0 0
46 1 14.40873110415651 19.836117917872706 0.5515059377616903 -1 0 0
136 2 -9.346290569496134 21.153459918136598 2.1841189998032142 0 0 0
163 2 -9.416719265978891 18.50370081051057 2.2004809324680643 0 0 0
10 1 -7.191226941895027 22.430914025808406 0.43228327104267417 0 0 0
73 1 -6.422369924672368 20.02833673148196 2.1803283320455553 0 0 0
203 2 -8.61727141971061 19.79020863161853 -0.009860507193473153 0 0 0
26 1 -3.2290648456876734 20.143358672990487 1.006891275286544 0 0 0
125 1 -4.168712991848641 21.85297703847855 3.6488774546328937 0 0 0
190 2 -1.701026401538266 20.220682409606496 3.6651260232020872 0 0 0
193 2 -3.9889476719398904 18.899750448255887 3.632628886063671 0 0 0
31 1 2.8127861710299418 20.184408690540142 1.896928361776754 0 0 0
100 1 1.1165217081988257 22.05154704649641 3.644973422779652 0 0 0
157 2 0.6289466478165296 18.956795896102363 3.648764090537198 0 0 0
225 2 -0.1871540231572042 20.26977064292115 1.454784583540539 0 0 0
104 1 5.349008367131908 19.607919734620236 3.6527814864861123 0 0 0
164 2 7.54310388513485 21.151032082007646 2.2004809324681025 0 0 0
204 2 8.257528417247949 19.815436027584933 -0.009860507193367316 0 0 0
263 2 5.636825026205623 19.950240651563426 0.719587273164676 0 0 0
47 1 22.905263722093306 -0.14862174881066303 0.5515059377616767 0 1 0
127 2 12.08636437288086 18.446655362664096 2.1843457279945313 0 0 0
137 2 9.802648238007595 19.765159487885654 2.1841189998032915 0 0 0
236 2 12.100158957294417 21.10755653417998 2.184232363898823 0 0 0
37 1 -11.710783805552413 19.83696260955309 3.8169587900360105 1 0 0
43 1 24.426094826247596 2.4855349933138546 4.945441209963986 -1 0 0
271 2 25.948388979308064 -0.14946644049115532 4.381199999999999 -1 0 0
41 1 -10.189952701398111 22.47111935167763 8.210894062238326 0 -1 0
131 2 2.9126627826875877 2.5573381149813104 6.5782810001967045 0 0 0
133 2 0.6289466478143384 3.8758422402028563 6.5780542720054616 0 0 0
238 2 0.6151520634007717 1.2149410686869784 6.578167636101174 0 0 0
86 1 7.366302653563286 2.714577868246701 5.10961851351388 0 0 0
114 1 -5.240829933524523 22.471964043358017 6.578167636101156 0 -1 0
170 2 5.17220713556034 1.1714655208593014 6.5619190675318935 0 0 0
210 2 4.457782603447239 2.5070615752820107 8.772260507193367 0 0 0
267 2 7.0784859944895695 2.3722569513035165 8.042812726835326 0 0 0
13 1 9.902524849665244 2.1380889123268063 6.865471638223241 0 0 0
94 1 11.598789312496356 0.27095055637052506 5.117426577220339 0 0 0
139 2 12.086364372878649 3.365701706764574 5.113635909462793 0 0 0
219 2 12.902465043852398 2.052726959945792 7.307615416459456 0 0 0
20 1 15.94437586638287 2.1791389298764474 7.75550872471345 0 0 0
117 1 16.884024012543826 0.4695205643883904 5.113522545367095 0 0 0
175 2 16.704258692635072 3.422747154611058 5.1297711139363225 0 0 0
184 2 14.416337422233452 2.101815193260436 5.097273976797908 0 0 0
258 2 14.329560968286174 -0.1494664404911254 6.5781676361011945 0 0 0
4 1 19.906537962590214 -0.1084164229414645 8.33011672895732 0 0 0
79 1 19.137680945367556 2.2941608713849915 6.582071667954438 0 0 0
209 2 21.332582440405798 2.5322889712484145 8.772260507193474 0 0 0
40 1 -1.6934200834613218 2.4863796849942448 8.210894062238312 1 0 0
130 2 22.06160159019132 1.1690376847303536 6.578281000196783 0 0 0
169 2 22.132030286674073 3.8187967923563804 6.5619190675319325 0 0 0
240 2 24.37290689389088 -0.14946644049114363 6.578167636101203 0 0 0
106 1 -1.4616996668106124 7.81142738432028 8.046716758688605 0 0 0
113 1 -4.1687129918508425 6.772023382579043 6.578167636101156 0 0 0
166 2 -1.7010264015404704 5.1397287537069944 6.594416204670349 0 0 0
259 2 -1.6142499475931995 7.391010387458558 5.113522545367059 0 0 0
5 1 2.8838868870753975 5.062405017091113 8.330116728957142 0 0 0
7 1 2.8127861710277458 5.10345503464063 4.8262185432450115 0 0 0
76 1 1.1165217081966263 6.970593390596909 6.574263604247915 0 0 0
123 1 3.8235350332368525 8.009997392338141 8.042812726835363 0 0 0
201 2 -0.18715402315940602 5.188816987021637 4.3840747650087994 0 0 0
21 1 6.846048983283102 7.349960369908986 7.755508724713413 0 0 0
80 1 5.349008367129706 4.52696607872073 6.582071667954374 0 0 0
115 1 4.8956519749127425 7.391010387458674 5.113522545367095 0 0 0
176 2 7.54310388513265 6.070078426108133 5.129771113936365 0 0 0
185 2 7.543103885133018 8.711942348809256 5.097273976797864 0 0 0
212 2 8.272093461097883 4.709254975719021 7.313364946477264 0 0 0
50 1 9.844774742786292 7.390165695778211 6.746248971504281 0 0 0
57 1 11.367068895846865 4.755164261973189 7.874731391432373 0 0 0
149 2 9.802648238005403 4.684205831986125 5.11340918127155 0 0 0
242 2 12.100158957292221 6.02660287828046 5.113522545367084 0 0 0
243 2 12.100158957292743 8.755417896636757 5.113522545367055 0 0 0
49 1 14.410194153061552 4.756008953653579 6.746248971504273 0 0 0
56 1 15.931025257215882 7.391855079138977 7.874731391432232 0 0 0
141 2 16.774687389118263 8.709514512680105 5.113635909462588 0 0 0
148 2 16.774687389117823 6.072506262237083 5.113409181271474 0 0 0
241 2 14.463382085418276 7.3910103874585875 5.113522545367059 0 0 0
273 2 12.887900000001078 7.391010387458595 7.310490181468254 0 0 0
15 1 18.929751016719063 7.4320604050082055 6.8654716382231005 0 0 0
85 1 19.698608033941586 4.947383075582449 5.109618513513817 0 0 0
211 2 17.51827158275563 4.734482371685392 7.313364946477157 0 0 0
266 2 20.13897497379806 4.869286995663755 8.04281272683529 0 0 0
98 1 -5.694186325743697 10.255054696196462 8.038908694982144 0 0 0
228 2 -4.802960562061231 12.274959199635175 5.848719855743148 0 0 0
35 1 -3.2290648456893862 9.719615757826078 6.290863633979368 0 0 0
66 1 -1.69488313236736 12.296485781603335 5.2816038807701835 0 0 0
151 2 -0.9741246064283247 10.906178534714321 8.04292609093105 0 0 0
161 2 -3.2578407413015773 12.22468265993588 8.042699362739812 0 0 0
30 1 2.8127861710282462 9.67856574027668 5.400826547489023 0 0 0
70 1 1.3482421248473362 12.295641089922947 6.410086300698205 0 0 0
187 2 3.6437697133280995 10.963223982560814 8.059061295404586 0 0 0
196 2 1.35584844292648 9.642292021210189 8.026564158266163 0 0 0
232 2 -0.18715402315896992 9.593203787895563 5.842970325725306 0 0 0
95 1 7.366302653564717 12.067442906670465 5.117426577220279 0 0 0
97 1 6.638119054634614 12.4878599035322 8.038908694982078 0 0 0
217 2 8.25752841724654 10.047538403231796 7.3076154164593525 0 0 0
227 2 4.443217559596368 12.249731803668789 5.848719855743047 0 0 0
256 2 5.636825026204113 9.91273377925344 6.5781676361012265 0 0 0
14 1 9.831424133619308 12.602881845040743 6.865471638223063 0 0 0
55 1 11.36560584694062 10.026011821263607 7.8747313914322445 0 0 0
140 2 9.802648238006354 10.097814942931054 5.113635909462712 0 0 0
150 2 12.086364372880082 11.416319068152593 5.113409181271347 0 0 0
19 1 15.873275150336926 12.643931862590396 7.755508724713273 0 0 0
51 1 14.408731104155313 10.026856512944004 6.746248971504141 0 0 0
177 2 14.416337422235273 12.680205581656809 5.129771113936177 0 0 0
186 2 16.70425869263648 11.359273620306203 5.097273976797723 0 0 0
213 2 12.873334956149776 12.729293814971394 7.313364946477058 0 0 0
96 1 19.698608033942204 9.834637699334756 5.117426577220286 0 0 0
218 2 17.503706538904286 10.072765799198173 7.30761541645925 0 0 0
257 2 18.69731400551261 12.409763823613675 6.578167636101196 -1 0 0
8 1 -10.1766020922311 17.26009258577596 4.826218543245188 0 0 0
28 1 -6.214439996023744 14.972537232958041 5.400826547489061 0 0 0
77 1 -7.711480612176506 17.795531524146245 6.574263604247976 0 0 0
121 1 -8.164837004394238 14.931487215408438 8.042812726835363 0 0 0
188 2 -5.5173850941743305 13.61055525405788 8.059061295404623 0 0 0
197 2 -5.51738509417396 16.252419176759012 8.02656415826613 0 0 0
233 2 -4.788395518208157 17.613242627147912 5.842970325725208 0 0 0
64 1 -1.693420083459127 17.56733334089376 5.281603880770046 0 0 0
71 1 -3.2157142365206552 14.932331907088823 6.410086300698198 0 0 0
152 2 -3.25784074130063 17.63829177088081 8.042926090930978 0 0 0
248 2 -0.960330022014762 13.567079706230212 8.042812726835345 0 0 0
249 2 -0.9603300220142414 16.29589472458651 8.042812726835322 0 0 0
65 1 2.8705362779088612 14.93064252372788 5.281603880770061 0 0 0
72 1 1.349705173755579 17.566488649213365 6.410086300698065 0 0 0
153 2 3.7141984098112824 16.24999134062986 8.042926090930848 0 0 0
160 2 3.714198409810849 13.612983090186844 8.042699362739736 0 0 0
247 2 1.4028931061112933 14.931487215408335 8.042812726835317 0 0 0
276 2 -0.1725889793059093 14.931487215408351 5.845845090734122 0 0 0
34 1 5.869262037411946 14.890437197858661 6.290863633979189 0 0 0
108 1 6.6381190546352205 17.375114527284516 8.04671675868855 0 0 0
234 2 4.457782603449434 17.58801523118152 5.842970325725104 0 0 0
261 2 7.078485994491761 17.45321060720303 5.113522545367059 0 0 0
87 1 11.59878931249843 14.511070218546637 5.109618513513826 0 0 0
112 1 8.89177598745832 15.550474220287631 6.578167636101321 0 0 0
171 2 11.359462577769097 17.182768849159903 6.5619190675320755 0 0 0
265 2 11.446239031715978 14.931487215408323 8.04281272683532 0 0 0
6 1 15.873275150337427 17.219042568226445 8.33011672895729 0 0 0
81 1 14.177010687505945 15.351904212270076 6.582071667954425 0 0 0
116 1 16.88402401254605 14.312500210529079 5.1135225453669335 0 0 0
208 2 12.873334956150202 17.13368061584533 8.772260507193566 0 0 0
44 1 2.8705362779066963 -0.1486217488107886 4.945441209963972 0 1 0
134 2 -10.147826196618144 19.765159487885647 6.578054272005541 0 0 0
107 1 -5.694186325742272 19.607919734620214 8.04671675868854 0 0 0
167 2 -7.888281843744811 21.151032082007436 6.594416204670389 0 0 0
199 2 -8.60270637585833 19.81543602758489 4.3840747650089 0 0 0
260 2 -5.982002984815897 19.950240651563252 5.113522545367025 0 0 0
36 1 -3.157964129640027 20.184408690540014 6.290863633979229 0 0 0
99 1 -1.461699666808555 22.051547046496374 8.038908694982085 0 0 0
162 2 -0.9741246064269049 18.956795896102346 8.042699362739617 0 0 0
226 2 -0.15802393545281848 20.26977064292112 5.848719855742948 0 0 0
29 1 2.883886887077595 20.143358672990622 5.400826547488884 0 0 0
122 1 3.823535033239071 21.85297703847883 8.042812726835201 0 0 0
189 2 1.3558484429282942 20.220682409606564 8.059061295404446 0 0 0
198 2 3.6437697133294917 18.899750448255947 8.026564158265991 0 0 0
9 1 6.8460489832853 22.43091402580849 4.826218543245154 0 0 0
78 1 6.077191966062169 20.028336731481943 6.574263604247968 0 0 0
200 2 8.272093461100091 19.79020863161853 4.384074765008998 0 0 0
42 1 11.365605846941815 19.836962609553094 8.210894062238454 0 0 0
45 1 11.367068895849066 19.836117917872706 4.945441209964117 0 0 0
135 2 9.001112610886105 21.153459918136598 6.578054272005667 0 0 0
168 2 9.07154130736791 18.503700810510498 6.594416204670532 0 0 0
132 2 13.689435627124293 18.446655362664114 6.5782810001969025 0 0 0
239 2 13.675641042711636 21.10755653417994 6.578167636101203 -1 0 0

Velocities

138 0 0 0
237 0 0 0
272 0 0 0
39 0 0 0
48 0 0 0
129 0 0 0
174 0 0 0
235 0 0 0
3 0 0 0
84 0 0 0
206 0 0 0
23 0 0 0
118 0 0 0
180 0 0 0
183 0 0 0
253 0 0 0
18 0 0 0
93 0 0 0
144 0 0 0
220 0 0 0
89 0 0 0
109 0 0 0
173 0 0 0
205 0 0 0
268 0 0 0
38 0 0 0
128 0 0 0
12 0 0 0
75 0 0 0
124 0 0 0
202 0 0 0
105 0 0 0
110 0 0 0
165 0 0 0
264 0 0 0
16 0 0 0
90 0 0 0
216 0 0 0
269 0 0 0
54 0 0 0
59 0 0 0
142 0 0 0
147 0 0 0
246 0 0 0
53 0 0 0
58 0 0 0
146 0 0 0
244 0 0 0
245 0 0 0
274 0 0 0
22 0 0 0
83 0 0 0
120 0 0 0
179 0 0 0
182 0 0 0
215 0 0 0
2 0 0 0
102 0 0 0
224 0 0 0
25 0 0 0
69 0 0 0
192 0 0 0
195 0 0 0
231 0 0 0
32 0 0 0
61 0 0 0
156 0 0 0
158 0 0 0
91 0 0 0
101 0 0 0
221 0 0 0
223 0 0 0
254 0 0 0
24 0 0 0
52 0 0 0
178 0 0 0
181 0 0 0
214 0 0 0
17 0 0 0
60 0 0 0
143 0 0 0
145 0 0 0
92 0 0 0
222 0 0 0
255 0 0 0
111 0 0 0
33 0 0 0
103 0 0 0
229 0 0 0
262 0 0 0
62 0 0 0
67 0 0 0
154 0 0 0
159 0 0 0
252 0 0 0
63 0 0 0
68 0 0 0
155 0 0 0
250 0 0 0
251 0 0 0
275 0 0 0
27 0 0 0
74 0 0 0
126 0 0 0
191 0 0 0
194 0 0 0
230 0 0 0
1 0 0 0
11 0 0 0
82 0 0 0
119 0 0 0
207 0 0 0
88 0 0 0
172 0 0 0
270 0 0 0
46 0 0 0
136 0 0 0
163 0 0 0
10 0 0 0
73 0 0 0
203 0 0 0
26 0 0 0
125 0 0 0
190 0 0 0
193 0 0 0
31 0 0 0
100 0 0 0
157 0 0 0
225 0 0 0
104 0 0 0
164 0 0 0
204 0 0 0
263 0 0 0
47 0 0 0
127 0 0 0
137 0 0 0
236 0 0 0
37 0 0 0
43 0 0 0
271 0 0 0
41 0 0 0
131 0 0 0
133 0 0 0
238 0 0 0
86 0 0 0
114 0 0 0
170 0 0 0
210 0 0 0
267 0 0 0
13 0 0 0
94 0 0 0
139 0 0 0
219 0 0 0
20 0 0 0
117 0 0 0
175 0 0 0
184 0 0 0
258 0 0 0
4 0 0 0
79 0 0 0
209 0 0 0
40 0 0 0
130 0 0 0
169 0 0 0
240 0 0 0
106 0 0 0
113 0 0 0
166 0 0 0
259 0 0 0
5 0 0 0
7 0 0 0
76 0 0 0
123 0 0 0
201 0 0 0
21 0 0 0
80 0 0 0
115 0 0 0
176 0 0 0
185 0 0 0
212 0 0 0
50 0 0 0
57 0 0 0
149 0 0 0
242 0 0 0
243 0 0 0
49 0 0 0
56 0 0 0
141 0 0 0
148 0 0 0
241 0 0 0
273 0 0 0
15 0 0 0
85 0 0 0
211 0 0 0
266 0 0 0
98 0 0 0
228 0 0 0
35 0 0 0
66 0 0 0
151 0 0 0
161 0 0 0
30 0 0 0
70 0 0 0
187 0 0 0
196 0 0 0
232 0 0 0
95 0 0 0
97 0 0 0
217 0 0 0
227 0 0 0
256 0 0 0
14 0 0 0
55 0 0 0
140 0 0 0
150 0 0 0
19 0 0 0
51 0 0 0
177 0 0 0
186 0 0 0
213 0 0 0
96 0 0 0
218 0 0 0
257 0 0 0
8 0 0 0
28 0 0 0
77 0 0 0
121 0 0 0
188 0 0 0
197 0 0 0
233 0 0 0
64 0 0 0
71 0 0 0
152 0 0 0
248 0 0 0
249 0 0 0
65 0 0 0
72 0 0 0
153 0 0 0
160 0 0 0
247 0 0 0
276 0 0 0
34 0 0 0
108 0 0 0
234 0 0 0
261 0 0 0
87 0 0 0
112 0 0 0
171 0 0 0
265 0 0 0
6 0 0 0
81 0 0 0
116 0 0 0
208 0 0 0
44 0 0 0
134 0 0 0
107 0 0 0
167 0 0 0
199 0 0 0
260 0 0 0
36 0 0 0
99 0 0 0
162 0 0 0
226 0 0 0
29 0 0 0
122 0 0 0
189 0 0 0
198 0 0 0
9 0 0 0
78 0 0 0
200 0 0 0
42 0 0 0
45 0 0 0
135 0 0 0
168 0 0 0
132 0 0 0
239 0 0 0
