(written by ASE)

276 atoms
2 atom types

0.0                 25.7758  xlo xhi
0.0      22.322497602866935  ylo yhi
0.0      8.7623999999999995  zlo zhi
    -12.887899999999995                       0                       0  xy xz yz

Atoms # atomic

     1   1      9.9463657040000033      17.166893556508786      3.9755008799999998
     2   1      22.781683072000003      5.1252454496182471      3.9755008799999998
     3   1       5.935651223999999    0.030358596739898765      3.9755008799999998
     4   1      19.840148775999999    0.030358596739898519              8.35670088
     5   1      2.9941169280000004      5.1252454496182471              8.35670088
     6   1      15.829434296000004      17.166893556508786              8.35670088
     7   1      2.9415342960000004      5.1556040463581461      4.7868991200000002
     8   1     -9.8937830719999962      17.197252153248687      4.7868991200000002
     9   1      6.9522487760000082      22.292139006127034      4.7868991200000002
    10   1     -6.9522487759999958      22.292139006127034     0.40569911999999991
    11   1      9.8937830720000068      17.197252153248684     0.40569911999999991
    12   1     -2.9415342959999986      5.1556040463581461     0.40569911999999991
    13   1      9.9463657039999998      2.2852284879308309      6.8963008800000001
    14   1      9.8937830720000033      12.566077983907224      6.8963008800000001
    15   1      18.823551223999999      7.4711911310288759      6.8963008800000001
    16   1       6.952248776000002      7.4711911310288759      2.5151008799999994
    17   1      15.882016928000001      12.566077983907224      2.5151008799999994
    18   1      15.829434296000001      2.2852284879308309      2.5151008799999994
    19   1      15.829434296000001      12.596436580647124              7.70769912
    20   1      15.882016928000001      2.3155870846707298              7.70769912
    21   1      6.9522487760000029      7.4104739375490789              7.70769912
    22   1      18.823551223999999      7.4104739375490789      3.3264991199999998
    23   1      9.8937830720000015      2.3155870846707298      3.3264991199999998
    24   1      9.9463657040000033      12.596436580647124      3.3264991199999998
    25   1     -2.9415342959999977      9.7260610222198078              1.05470088
    26   1     -2.9941169279999937        20.0069105181962              1.05470088
    27   1      5.9356512240000026      14.912023665317854              1.05470088
    28   1     -5.9356512239999963      14.912023665317854      5.4359008799999993
    29   1      2.9941169280000053        20.0069105181962      5.4359008799999993
    30   1      2.9415342960000022      9.7260610222198078      5.4359008799999993
    31   1      2.9415342960000048      20.037269114936098      1.8660991199999997
    32   1      2.9941169280000008      9.7564196189597059      1.8660991199999997
    33   1     -5.9356512239999955      14.851306471838054      1.8660991199999997
    34   1      5.9356512240000034      14.851306471838054      6.2472991199999992
    35   1     -2.9941169279999973      9.7564196189597059      6.2472991199999992
    36   1     -2.9415342959999959      20.037269114936098      6.2472991199999992
    37   1      14.386891649000006      19.705184758930784      3.8160251999999999
    38   1      22.759644763000001    0.010491573873346706      3.8160251999999999
    39   1      1.5171635880000003      2.6068212700628006      3.8160251999999999
    40   1      24.258636412000001      2.6068212700628002      8.1972252000000001
    41   1             3.016155237    0.010491573873347055      8.1972252000000001
    42   1      11.388908351000005      19.705184758930784      8.1972252000000001
    43   1     -1.4989916489999997      2.6173128439361477      4.9463748000000001
    44   1     -9.8717447629999953      22.312006028993586      4.9463748000000001
    45   1      11.370736412000007      19.715676332804133      4.9463748000000001
    46   1     -11.370736411999996      19.715676332804133     0.56517479999999998
    47   1      9.8717447630000059      22.312006028993586     0.56517479999999998
    48   1      1.4989916490000008      2.6173128439361477     0.56517479999999998
    49   1      14.386891649000003      4.8235196903528292      6.7368252000000002
    50   1      9.8717447630000024       7.451324108162324      6.7368252000000002
    51   1      14.405063588000003      10.047653804351777      6.7368252000000002
    52   1      11.370736412000005      10.047653804351777      2.3556251999999995
    53   1      15.904055237000001       7.451324108162324      2.3556251999999995
    54   1      11.388908351000001      4.8235196903528292      2.3556251999999995
    55   1      11.388908351000001      10.058145378225126      7.8671747999999999
    56   1      15.904055237000001      7.4303409604156307      7.8671747999999999
    57   1      11.370736412000001      4.8340112642261763      7.8671747999999999
    58   1      14.405063588000001      4.8340112642261763      3.4859747999999997
    59   1      9.8717447630000006      7.4303409604156307      3.4859747999999997
    60   1      14.386891649000003      10.058145378225126      3.4859747999999997
    61   1      1.4989916490000041      12.264352224641806     0.89522519999999983
    62   1     -3.0161552369999955      14.892156642451301     0.89522519999999983
    63   1      1.5171635880000054      17.488486338640755     0.89522519999999983
    64   1     -1.5171635879999943      17.488486338640755      5.2764251999999994
    65   1      3.0161552370000053      14.892156642451301      5.2764251999999994
    66   1      -1.498991648999997      12.264352224641806      5.2764251999999994
    67   1     -1.4989916489999959        17.4989779125141      2.0255747999999998
    68   1      3.0161552370000035      14.871173494704607      2.0255747999999998
    69   1     -1.5171635879999974      12.274843798515153      2.0255747999999998
    70   1      1.5171635880000023      12.274843798515153      6.4067747999999991
    71   1     -3.0161552369999973      14.871173494704607      6.4067747999999991
    72   1      1.4989916490000053        17.4989779125141      6.4067747999999991
    73   1     -6.2099057359999943      19.896935013339412      2.1897237600000001
    74   1       7.448304047000005      17.751966218679929      2.1897237600000001
    75   1      -1.238398310999999       6.996093973714526      2.1897237600000001
    76   1      1.2383983110000025       6.996093973714526      6.5709237599999994
    77   1     -7.4483040469999962      17.751966218679929      6.5709237599999994
    78   1      6.2099057360000058      19.896935013339412      6.5709237599999994
    79   1      19.097805736000002      2.4255625895275208      6.5726762399999998
    80   1      5.4395959530000013      4.5705313841870048      6.5726762399999998
    81   1      14.126298311000003      15.326403629152408      6.5726762399999998
    82   1      11.649501689000004      15.326403629152408      2.1914762399999996
    83   1      20.336204046999999      4.5705313841870048      2.1914762399999996
    84   1      6.6779942640000014      2.4255625895275208      2.1914762399999996
    85   1      19.565894264000004      5.0152699447614566      5.1105237600000004
    86   1      7.4483040469999988      2.8703011501019717      5.1105237600000004
    87   1      11.649501689000004      14.436926508003502      5.1105237600000004
    88   1      14.126298311000006      14.436926508003502     0.72932375999999988
    89   1      18.327495953000003      2.8703011501019717     0.72932375999999988
    90   1      6.2099057359999987      5.0152699447614566     0.72932375999999988
    91   1      6.2099057360000005      9.8663951238164973     0.73107623999999927
    92   1      18.327495953000007      12.011363918475983     0.73107623999999927
    93   1      14.126298311000001     0.44473856057445105     0.73107623999999927
    94   1      11.649501688999999     0.44473856057445105       5.112276239999999
    95   1      7.4483040470000024      12.011363918475983       5.112276239999999
    96   1      19.565894264000004      9.8663951238164973       5.112276239999999
    97   1      6.6779942640000032      12.456102479050433      8.0313237599999994
    98   1     -5.4395959529999978      10.311133684390949      8.0313237599999994
    99   1      -1.238398310999997      21.877759042292482      8.0313237599999994
   100   1       1.238398311000005      21.877759042292482      3.6501237599999996
   101   1      5.4395959530000022      10.311133684390949      3.6501237599999996
   102   1     -6.6779942639999978      12.456102479050433      3.6501237599999996
   103   1      -6.677994263999997      17.307227658105472      3.6518762399999996
   104   1      5.4395959530000031      19.452196452764959      3.6518762399999996
   105   1      1.2383983110000025      7.8855710948634288      3.6518762399999996
   106   1      -1.238398310999999      7.8855710948634288      8.0330762399999998
   107   1      -5.439595952999996      19.452196452764959      8.0330762399999998
   108   1      6.6779942640000041      17.307227658105472      8.0330762399999998
   109   1      17.857989755999998 -3.1544530046422225e-16      2.1905999999999999
   110   1      3.9589051220000013      6.8570248136486649      2.1905999999999999
   111   1     -8.9289948779999957      15.465472789218268      2.1905999999999999
   112   1      8.9289948780000028      15.465472789218268      6.5717999999999996
   113   1     -3.9589051219999987      6.8570248136486649      6.5717999999999996
   114   1             7.917810244 -1.3986098466643543e-16      6.5717999999999996
   115   1      4.9700897560000037       7.440832534288977      5.1113999999999997
   116   1      16.846805122000003       14.29785734793764      5.1113999999999997
   117   1      16.846805122000003     0.58380772064031106      5.1113999999999997
   118   1      8.9289948780000028     0.58380772064031117     0.73019999999999985
   119   1      8.9289948780000046       14.29785734793764     0.73019999999999985
   120   1            20.805710244       7.440832534288977     0.73019999999999985
   121   1     -7.9178102439999982      14.881665068577954      8.0321999999999996
   122   1      3.9589051220000036      21.738689882226616      8.0321999999999996
   123   1      3.9589051220000013      8.0246402549292917      8.0321999999999996
   124   1     -3.9589051220000009      8.0246402549292934      3.6509999999999994
   125   1     -3.9589051219999947      21.738689882226616      3.6509999999999994
   126   1      7.9178102440000027      14.881665068577954      3.6509999999999994
   127   2      12.059465788000002      18.315162833200258      2.1849044399999999
   128   2      22.719563394000001      2.7211124577894785      2.1849044399999999
   129   2      3.8846708180000009      1.2862223118771925      2.1849044399999999
   130   2            21.891129182      1.2862223118771923      6.5661044399999993
   131   2       3.056236606000001       2.721112457789479      6.5661044399999993
   132   2      13.716334212000005      18.315162833200258      6.5661044399999993
   133   2       0.828434212000001      4.0073347696666719              6.57749556
   134   2      -9.831663393999996      19.601385145077451              6.57749556
   135   2      9.0032291820000037      21.036275290989739              6.57749556
   136   2     -9.0032291819999948      21.036275290989739      2.1962955599999998
   137   2      9.8316633940000031      19.601385145077451      2.1962955599999998
   138   2    -0.82843421199999923      4.0073347696666728      2.1962955599999998
   139   2      12.059465787999999       3.433497764622305      5.1057044400000002
   140   2      9.8316633940000013      10.161944992078455      5.1057044400000002
   141   2      16.772570818000002       8.727054846166169      5.1057044400000002
   142   2      9.0032291820000001       8.727054846166169     0.72450443999999992
   143   2      15.944136606000001      10.161944992078455     0.72450443999999992
   144   2            13.716334212       3.433497764622305     0.72450443999999992
   145   2      13.716334212000001       11.44816730395565     0.73589555999999967
   146   2      15.944136606000001      4.7197200764994971     0.73589555999999967
   147   2      9.0032291820000001       6.154610222411784     0.73589555999999967
   148   2      16.772570818000002       6.154610222411784      5.1170955599999992
   149   2      9.8316633939999996      4.7197200764994971      5.1170955599999992
   150   2      12.059465788000002       11.44816730395565      5.1170955599999992
   151   2    -0.82843421199999789      10.874330298911282      8.0265044400000001
   152   2     -3.0562366059999957      17.602777526367433      8.0265044400000001
   153   2      3.8846708180000058      16.167887380455145      8.0265044400000001
   154   2     -3.8846708179999969      16.167887380455149      3.6453044399999994
   155   2      3.0562366060000064      17.602777526367433      3.6453044399999994
   156   2     0.82843421200000278      10.874330298911282      3.6453044399999994
   157   2       0.828434212000005      18.888999838244626      3.6566955599999997
   158   2      3.0562366060000032      12.160552610788475      3.6566955599999997
   159   2     -3.8846708179999969      13.595442756700761      3.6566955599999997
   160   2       3.884670818000004      13.595442756700761      8.0378955599999991
   161   2      -3.056236605999997      12.160552610788475      8.0378955599999991
   162   2    -0.82843421199999567      18.888999838244626      8.0378955599999991
   163   2     -9.1201224349999936      18.412265697772728      2.2123307520000002
   164   2      7.6176510530000074      21.014622468314958      2.2123307520000002
   165   2      1.5024713820000011      5.2181070396461742      2.2123307520000002
   166   2     -1.5024713819999982      5.2181070396461742      6.5935307520000004
   167   2      -7.617651052999995      21.014622468314958      6.5935307520000004
   168   2      9.1201224350000079      18.412265697772728      6.5935307520000004
   169   2      22.008022435000001         3.9102319050942      6.5500692479999989
   170   2      5.2702489470000007      1.3078751345519741      6.5500692479999989
   171   2      11.385428618000004      17.104390563220758      6.5500692479999989
   172   2      14.390371382000003      17.104390563220758      2.1688692479999996
   173   2      20.505551053000001      1.3078751345519739      2.1688692479999996
   174   2      3.7677775650000012      3.9102319050942005      2.1688692479999996
   175   2      16.655677565000001      3.5306006291947765      5.1331307520000005
   176   2      7.6176510530000012      6.1329573997370028      5.1331307520000005
   177   2            14.390371382      12.658939573935152      5.1331307520000005
   178   2      11.385428618000004      12.658939573935152     0.75193075200000015
   179   2      18.158148946999997      6.1329573997370028     0.75193075200000015
   180   2      9.1201224350000007      3.5306006291947769     0.75193075200000015
   181   2      9.1201224350000025      11.351064439383178       0.708469247999999
   182   2      18.158148947000004      8.7487076688409502       0.708469247999999
   183   2      11.385428618000001      2.2227254946428023       0.708469247999999
   184   2            14.390371382      2.2227254946428023       5.089669247999999
   185   2      7.6176510530000021      8.7487076688409502       5.089669247999999
   186   2      16.655677565000005      11.351064439383178       5.089669247999999
   187   2      3.7677775650000043      10.971433163483754      8.0539307519999994
   188   2     -5.2702489469999971       13.57378993402598      8.0539307519999994
   189   2      1.5024713820000044       20.09977210822413      8.0539307519999994
   190   2     -1.5024713819999946       20.09977210822413      3.6727307519999997
   191   2      5.2702489470000042       13.57378993402598      3.6727307519999997
   192   2     -3.7677775649999981      10.971433163483754      3.6727307519999997
   193   2     -3.7677775649999954      18.791896973672152      3.6292692479999991
   194   2      5.2702489470000033      16.189540203129926      3.6292692479999991
   195   2     -1.5024713819999971      9.6635580289317797      3.6292692479999991
   196   2       1.502471382000002      9.6635580289317797      8.0104692479999997
   197   2     -5.2702489469999962       16.18954020312993      8.0104692479999997
   198   2      3.7677775650000052      18.791896973672152      8.0104692479999997
   199   2     -8.3105045569999962      19.675719062095002             4.389436656
   200   2      8.3070248240000062      19.681746136447771             4.389436656
   201   2   0.0034797330000009559      5.2875300071910898             4.389436656
   202   2  -0.0034797329999982367      5.2875300071910898   0.0082366559999999985
   203   2     -8.3070248239999955      19.681746136447771   0.0082366559999999985
   204   2      8.3105045570000051      19.675719062095002   0.0082366559999999985
   205   2            21.198404557      2.6467785407719311      4.3729633439999995
   206   2      4.5808751760000002      2.6407514664191583      4.3729633439999995
   207   2      12.884420267000007      17.034967595675841      4.3729633439999995
   208   2      12.891379733000004      17.034967595675841      8.7541633439999984
   209   2      21.194924824000001      2.6407514664191578      8.7541633439999984
   210   2      4.5773954430000003      2.6467785407719315      8.7541633439999984
   211   2      17.465295442999999      4.7940539935170454      7.3102366560000007
   212   2      8.3070248240000009      4.8000810678698187      7.3102366560000007
   213   2      12.891379733000003      12.728362541480067      7.3102366560000007
   214   2      12.884420267000001      12.728362541480067      2.9290366559999996
   215   2      17.468775176000001      4.8000810678698187      2.9290366559999996
   216   2      8.3105045569999998      4.7940539935170454      2.9290366559999996
   217   2      8.3105045570000033      10.087611075060909      7.2937633439999994
   218   2      17.468775176000001      10.081584000708135      7.2937633439999994
   219   2      12.884420266999999      2.1533025270978867      7.2937633439999994
   220   2      12.891379733000001      2.1533025270978867      2.9125633439999996
   221   2      8.3070248240000026      10.081584000708135      2.9125633439999996
   222   2      17.465295443000002      10.087611075060909      2.9125633439999996
   223   2      4.5773954430000021      12.234886527806022      1.4686366559999997
   224   2     -4.5808751759999975      12.240913602158797      1.4686366559999997
   225   2    0.003479733000005516      20.169195075769043      1.4686366559999997
   226   2   -0.003479732999995897      20.169195075769043      5.8498366559999999
   227   2      4.5808751760000037      12.240913602158797      5.8498366559999999
   228   2     -4.5773954429999977      12.234886527806022      5.8498366559999999
   229   2     -4.5773954429999959      17.528443609349885      1.4521633439999999
   230   2      4.5808751760000028      17.522416534997109      1.4521633439999999
   231   2  -0.0034797329999965683      9.5941350613868632      1.4521633439999999
   232   2   0.0034797330000021802      9.5941350613868632      5.8333633439999986
   233   2     -4.5808751759999948      17.522416534997109      5.8333633439999986
   234   2       4.577395443000003      17.528443609349885      5.8333633439999986
   235   2             1.568199672 -2.7700834387349214e-17      2.1905999999999999
   236   2      12.103800164000006      20.964396848708507      2.1905999999999999
   237   2    -0.78409983599999966       1.358100754158424      2.1905999999999999
   238   2     0.78409983600000033       1.358100754158424      6.5717999999999996
   239   2     -12.103800163999995      20.964396848708507      6.5717999999999996
   240   2      24.207600328000002 -4.2760545074330852e-16      6.5717999999999996
   241   2      14.456099672000001       7.440832534288977      5.1113999999999997
   242   2      12.103800164000001      6.0827317801305529      5.1113999999999997
   243   2      12.103800164000003       8.798933288447401      5.1113999999999997
   244   2      13.671999836000001       8.798933288447401     0.73019999999999985
   245   2      13.671999836000001      6.0827317801305529     0.73019999999999985
   246   2      11.319700328000001       7.440832534288977     0.73019999999999985
   247   2      1.5681996720000044      14.881665068577954      8.0321999999999996
   248   2    -0.78409983599999666      13.523564314419529      8.0321999999999996
   249   2    -0.78409983599999578      16.239765822736377      8.0321999999999996
   250   2     0.78409983600000466      16.239765822736377      3.6509999999999994
   251   2     0.78409983600000377      13.523564314419529      3.6509999999999994
   252   2     -1.5681996719999964      14.881665068577954      3.6509999999999994
   253   2             11.39161481 -2.0122261271349418e-16      2.1905999999999999
   254   2      7.1920925950000019       12.45706978727989      2.1905999999999999
   255   2     -5.6958074049999983      9.8654278155870401      2.1905999999999999
   256   2      5.6958074050000018      9.8654278155870401      6.5717999999999996
   257   2     -7.1920925949999965       12.45706978727989      6.5717999999999996
   258   2      14.384185189999998  -2.540836724171635e-16      6.5717999999999996
   259   2     -1.4962851900000003       7.440832534288977      5.1113999999999997
   260   2     -5.6958074049999956      19.897902321568868      5.1113999999999997
   261   2      7.1920925950000045      17.306260349876016      5.1113999999999997
   262   2     -7.1920925949999983      17.306260349876016     0.73019999999999985
   263   2      5.6958074050000054      19.897902321568868     0.73019999999999985
   264   2      1.4962851900000012       7.440832534288977     0.73019999999999985
   265   2      11.391614810000004      14.881665068577954      8.0321999999999996
   266   2      20.079992595000004      5.0162372529909129      8.0321999999999996
   267   2      7.1920925950000019      2.4245952812980613      8.0321999999999996
   268   2      18.583707405000002      2.4245952812980613      3.6509999999999994
   269   2      5.6958074050000018      5.0162372529909129      3.6509999999999994
   270   2      14.384185190000004      14.881665068577954      3.6509999999999994
   271   2                       0                       0      4.3811999999999998
   272   2                       0                       0                       0
   273   2      12.887900000000002       7.440832534288977      7.3019999999999996
   274   2      12.887900000000002       7.440832534288977      2.9207999999999998
   275   2  4.0296617894360526e-15      14.881665068577954      1.4603999999999999
   276   2  4.0296617894360526e-15      14.881665068577954      5.8415999999999997
