(written by ASE)

2 atoms
1 atom types

0.0      3.2090649908573838  xlo xhi
0.0      2.7791318044777711  ylo yhi
0.0       5.196910540230574  zlo zhi
    -1.6045324954286926                       0                       0  xy xz yz

Atoms # atomic

     1   1  0.00046750457130818196  0.00040487083513801331   0.0080647298847141297
     2   1  0.00046750457130779365      1.8531594071536515      2.6065200000000011
