(written by ASE)

2 atoms
1 atom types

0.0      2.6600000000000001  xlo xhi
0.0      2.3036275740666068  ylo yhi
0.0      4.9369600000000009  zlo zhi
    -1.3300000000000001                       0                       0  xy xz yz

Atoms # atomic

     1   1                       0                       0                       0
     2   1  4.9219887425048609e-17      1.5357517160444045      2.4684800000000005
