104
Lattice="10.881949852866 0.0 0.0 0.0 17.654749029564 0.0 0.0 0.0 29.653429747306" Properties=species:S:1:pos:R:3:forces:R:3:energies:R:1 energy=-138.21364519109557 stress="0.00047610175338961056 -6.498710611762224e-08 1.4537785550056664e-06 -6.498710611762224e-08 0.0005418778801921841 1.7253793449829852e-06 1.4537785550056664e-06 1.7253793449829852e-06 -1.1921294908823046e-05" free_energy=-138.21364519109557 pbc="T T F"
Zn       4.06413016      11.02958312      18.45150786      -0.02063585      -0.00363290       0.01688098      -0.46944950
Zn       4.06513935       2.22282882      18.41936310      -0.01752651      -0.02728805       0.01168445      -0.47091087
Zn       9.54398709      11.02807859      18.45554022      -0.00502924      -0.00308821      -0.00198863      -0.48146971
Zn       9.54246136       2.21893055      18.42073780      -0.00292488      -0.02684830      -0.00009948      -0.48446563
Zn       6.81681050      15.43192021      11.23406665       0.01752651       0.02728805      -0.01168445      -0.47091087
Zn       6.81781970       6.62516591      11.20192189       0.02063585       0.00363290      -0.01688098      -0.46944950
Zn       1.33948850      15.43581848      11.23269195       0.00292488       0.02684830       0.00009948      -0.48446563
Zn       1.33796276       6.62667044      11.19788953       0.00502924       0.00308821       0.00198863      -0.48146971
Mg       6.81252224       9.45027731      18.40072689      -0.00485405       0.01129675       0.01281159      -1.50674139
Mg       6.81274857       0.69139637      18.37901818      -0.00613206      -0.02886771       0.00649969      -1.49849487
Mg       1.35835942       9.44369185      18.39682989       0.00566708       0.01728756       0.00254548      -1.50633350
Mg       1.35900102       0.68317833      18.37336707       0.00175378      -0.01663367      -0.00283624      -1.49868797
Mg       4.06704752      13.85754386      11.28462305       0.00640227       0.00750576      -0.02436571      -1.50978052
Mg       4.06998285       5.09526758      11.25307121       0.00553134      -0.00511844      -0.02345049      -1.49871269
Mg       9.52249343      13.84834541      11.29304656      -0.00674423       0.01499842      -0.01852168      -1.51098852
Mg       9.52304455       5.08646113      11.25717343      -0.00392734       0.00181047      -0.01219536      -1.49861115
Mg       9.52359044       8.21105718      11.25659986      -0.00566707      -0.01728756      -0.00254548      -1.50633350
Mg       4.06942761       8.20447172      11.25270286       0.00485405      -0.01129675      -0.01281159      -1.50674139
Mg       9.52294884      16.97157070      11.28006268      -0.00175378       0.01663367       0.00283624      -1.49868797
Mg       4.06920129      16.96335266      11.27441157       0.00613206       0.02886771      -0.00649969      -1.49849487
Mg       1.35890530      12.56828790      18.39625632       0.00392734      -0.00181047       0.01219536      -1.49861115
Mg       1.35945643       3.80640362      18.36038319       0.00674423      -0.01499842       0.01852168      -1.51098852
Mg       6.81196701      12.55948145      18.40035854      -0.00553134       0.00511844       0.02345049      -1.49871269
Mg       6.81490233       3.79720517      18.36880670      -0.00640227      -0.00750576       0.02436571      -1.50978052
Zn       5.54974572       6.62569110      17.78838722       0.00188831      -0.01017735       0.01354476      -0.86857188
Zn       5.54367645      15.44700265      17.80630663       0.00707152       0.00555621       0.01637721      -0.84932503
Zn       0.11775080       6.62208053      17.80391974      -0.02037660      -0.00525521      -0.01334114      -0.86524140
Zn       0.12272238      15.44476421      17.81174274      -0.02001177       0.00584810      -0.00045353      -0.84610328
Zn       5.33220414      11.02905792      11.86504252      -0.00188831       0.01017735      -0.01354476      -0.86857188
Zn       5.33827341       2.20774638      11.84712312      -0.00707152      -0.00555621      -0.01637721      -0.84932503
Zn      10.76419906      11.03266850      11.84951001       0.02037660       0.00525521       0.01334114      -0.86524140
Zn      10.75922747       2.20998482      11.84168700       0.02001176      -0.00584810       0.00045353      -0.84610328
Zn       8.26520085      11.03124180      11.85044555      -0.02357520       0.00861448       0.01438945      -0.86479230
Zn       2.82935084      11.03249444      11.85472386      -0.00900313       0.00711541       0.00506951      -0.86567401
Zn       8.26444590       2.20702881      11.83730624      -0.01495319      -0.00247998      -0.00212997      -0.84788428
Zn       2.83828421       2.20919301      11.84246057      -0.00572475      -0.00408984      -0.00327431      -0.84546583
Zn       2.61750395      15.44772022      17.81612351       0.01495319       0.00247998       0.00212997      -0.84788428
Zn       2.61674901       6.62350722      17.80298420       0.02357520      -0.00861448      -0.01438945      -0.86479230
Zn       8.04366564      15.44555602      17.81096918       0.00572475       0.00408984       0.00327431      -0.84546583
Zn       8.05259901       6.62225459      17.79870588       0.00900313      -0.00711541      -0.00506951      -0.86567401
Zn       4.09179970       8.79509597      17.21411547      -0.01984700      -0.00500799      -0.00510703      -1.11284231
Zn       4.08589236      17.62840837      17.19554798      -0.00666303       0.03084964       0.01540828      -1.10552459
Zn       9.52319461       8.79224344      17.22089669       0.00255928       0.00157792      -0.00054516      -1.11505510
Zn       9.52399586      17.62463029      17.20408970       0.00005803       0.02645591       0.01599028      -1.10560629
Zn       6.78616911      13.20367658      12.47145786       0.02159818      -0.02610002       0.00670430      -1.11266354
Zn       6.79358315       4.39346500      12.43687085       0.01235317      -0.01080986      -0.00299751      -1.10650966
Zn       1.35674198      13.20416629      12.46036977       0.00144026      -0.01734119       0.00355021      -1.11564880
Zn       1.35927141       4.39445017      12.43050741       0.00086044      -0.00644712      -0.01472969      -1.10799814
Zn       6.79015015       8.85965306      12.43931428       0.01984700       0.00500799       0.00510703      -1.11284231
Zn       1.35875525       8.86250559      12.43253305      -0.00255927      -0.00157792       0.00054516      -1.11505510
Zn       6.79605750       0.02634066      12.45788177       0.00666303      -0.03084965      -0.01540828      -1.10552459
Zn       1.35795399       0.03011874      12.44934005      -0.00005803      -0.02645591      -0.01599028      -1.10560629
Zn       4.08836670      13.26128403      17.21655890      -0.01235317       0.01080987       0.00299751      -1.10650966
Zn       4.09578075       4.45107245      17.18197188      -0.02159818       0.02610002      -0.00670430      -1.11266354
Zn       9.52267845      13.26029886      17.22292234      -0.00086044       0.00644712       0.01472969      -1.10799814
Zn       9.52520787       4.45058274      17.19305997      -0.00144026       0.01734119      -0.00355022      -1.11564880
Zn       8.13571561      11.01390005      16.20481776       0.00174076       0.00778574       0.00321262      -1.21648184
Zn       8.13593000       2.22771583      16.17335458       0.01268556      -0.01634287       0.01583966      -1.21293127
Zn       2.69087325      11.01454788      16.17552204       0.02237967       0.00842824       0.00877527      -1.20278996
Zn       2.69285605       2.22812111      16.14561928       0.02469438      -0.01369005       0.00582940      -1.19985833
Zn       2.74601986      15.42703319      13.48007516      -0.01268556       0.01634287      -0.01583966      -1.21293127
Zn       2.74623425       6.64084897      13.44861199      -0.00174076      -0.00778574      -0.00321263      -1.21648184
Zn       8.18909380      15.42662792      13.50781047      -0.02469438       0.01369005      -0.00582941      -1.19985833
Zn       8.19107660       6.64020115      13.47790770      -0.02237968      -0.00842824      -0.00877527      -1.20278996
Zn      10.83969299       6.64087670      13.45965325       0.02746746      -0.00779276      -0.02340740      -1.21515827
Zn       5.41166526       6.63940717      13.45159516      -0.00193256      -0.00908081       0.02532558      -1.21475043
Zn      10.84038850      15.42580882      13.49105973       0.02408483       0.01871723      -0.01652000      -1.21110471
Zn       5.40873540      15.42947347      13.48034090       0.01121355       0.01330067       0.02316846      -1.21117768
Zn       0.04225687      11.01387233      16.19377650      -0.02746745       0.00779276       0.02340739      -1.21515827
Zn       0.04156135       2.22894021      16.16237001      -0.02408483      -0.01871723       0.01652000      -1.21110470
Zn       5.47028460      11.01534186      16.20183459       0.00193257       0.00908081      -0.02532558      -1.21475043
Zn       5.47321445       2.22527556      16.17308885      -0.01121355      -0.01330067      -0.02316846      -1.21117768
Mg       6.79273440       4.98238658      15.48331064       0.01097880       0.00471815       0.01142732      -1.60298993
Mg       6.78652216      13.77968129      15.53112329       0.01400297       0.01397852      -0.00726917      -1.60413714
Mg       1.36740517       4.98690867      15.47151921      -0.00218753      -0.00434967       0.00799037      -1.60252019
Mg       1.36864907      13.78923177      15.52189785      -0.00587626      -0.00507914      -0.00808582      -1.60350984
Mg       4.08939098       9.37635969      14.14601431      -0.01120874       0.01167230       0.00461876      -1.60549028
Mg       4.08995419       0.55127349      14.14127859      -0.00559555       0.01541262      -0.00420448      -1.60352419
Mg       9.51577101       9.38411854      14.15361108       0.00328546      -0.00218323       0.00835330      -1.60481589
Mg       9.51225732       0.55686193      14.15287306       0.01146900      -0.00207379      -0.00274101      -1.60247899
Mg       9.51454469      12.66784036      14.18191054       0.00218753       0.00434967      -0.00799037      -1.60252019
Mg       4.08921546      12.67236245      14.17011911      -0.01097881      -0.00471815      -0.01142732      -1.60298993
Mg       9.51330079       3.86551726      14.13153189       0.00587627       0.00507914       0.00808582      -1.60350984
Mg       4.09542769       3.87506774      14.12230646      -0.01400297      -0.01397852       0.00726917      -1.60413714
Mg       1.36969253      17.09788710      15.50055669      -0.01146900       0.00207379       0.00274101      -1.60247899
Mg       1.36617884       8.27063049      15.49981867      -0.00328546       0.00218323      -0.00835330      -1.60481589
Mg       6.79199566      17.10347554      15.51215115       0.00559555      -0.01541262       0.00420448      -1.60352419
Mg       6.79255887       8.27838934      15.50741544       0.01120874      -0.01167230      -0.00461876      -1.60549028
Zn       4.07613534       6.63210983      15.61790533      -0.01312288      -0.00636570       0.01719696      -1.23259453
Zn       4.07428951      15.44468277      15.64231091      -0.00460416      -0.00678105       0.01177887      -1.23016697
Zn       9.53062390       6.62627586      15.63135813      -0.00262442       0.00159741       0.03780554      -1.22728860
Zn       9.52557706      15.43705671      15.66066385       0.00344907       0.00668383       0.00834154      -1.22617885
Zn       6.80581451      11.02263920      14.03552441       0.01312288       0.00636570      -0.01719696      -1.23259453
Zn       6.80766034       2.21006626      14.01111883       0.00460416       0.00678105      -0.01177887      -1.23016697
Zn       1.35132596      11.02847317      14.02207161       0.00262441      -0.00159741      -0.03780553      -1.22728860
Zn       1.35637279       2.21769232      13.99276590      -0.00344907      -0.00668383      -0.00834154      -1.22617885
H        6.75578251      11.00191203      19.52305969       0.00257117       0.00918536       0.00102264      -3.00182258
H        6.75442229       2.24791468      19.49315927       0.00242899      -0.00010152       0.01244556      -3.00249641
H        1.52779949      11.00272857      19.50674992       0.01618043       0.01043155      -0.00550327      -3.00136068
H        1.51986441       2.25082360      19.47234152       0.01650405      -0.00636852       0.01037145      -3.00164226
H        4.12752757      15.40683435      10.16027048      -0.00242899       0.00010152      -0.01244556      -3.00249641
H        4.12616735       6.65283700      10.13037006      -0.00257117      -0.00918536      -0.00102264      -3.00182258
H        9.36208544      15.40392543      10.18108823      -0.01650405       0.00636852      -0.01037145      -3.00164226
H        9.35415036       6.65202046      10.14667982      -0.01618043      -0.01043155       0.00550327      -3.00136068
