312  
234  

1    
  0.0100000000000000   0.0000000000000000   0.0000000000000000
  -0.0413568194   -0.0048015804   -0.0019265197
  -0.0000036394   -0.0000070804   -0.0000045197
  -0.0000036394   -0.0000070804   -0.0000045197
  -0.0000036394   -0.0000070804   -0.0000045197
  -0.0000036394   -0.0000070804   -0.0000045197
  -0.0000036394   -0.0000070804   -0.0000045197
  -0.0000036394   -0.0000070804   -0.0000045197
  -0.0000036394   -0.0000070804   -0.0000045197
  -0.0000017594   -0.0000074504   -0.0000006897
  -0.0000013794   -0.0000101004   -0.0000006097
  -0.0000013794   -0.0000101004   -0.0000006097
  -0.0000013794   -0.0000101004   -0.0000006097
   0.0004523706    0.0000385996   -0.0000139697
  -0.0000013794   -0.0000101004   -0.0000006097
  -0.0000013594   -0.0000093404   -0.0000004397
  -0.0000013794   -0.0000101004   -0.0000006097
  -0.0000850894   -0.0000764404   -0.0000274597
   0.0000068106   -0.0000061004   -0.0000055997
  -0.0001300494   -0.0000971504    0.0000197203
   0.0000068106   -0.0000061004   -0.0000055997
   0.0000068106   -0.0000061004   -0.0000055997
   0.0000068106   -0.0000061004   -0.0000055997
   0.0000068106   -0.0000061004   -0.0000055997
   0.0000068106   -0.0000061004   -0.0000055997
  -0.0000029594   -0.0000046204    0.0000044103
  -0.0000029594   -0.0000046204    0.0000044103
  -0.0000029594   -0.0000046204    0.0000044103
  -0.0000029594   -0.0000046204    0.0000044103
  -0.0001121794   -0.0000271304   -0.0001982097
  -0.0000029594   -0.0000046204    0.0000044103
  -0.0001247794    0.0000062296   -0.0001570497
  -0.0000029594   -0.0000046204    0.0000044103
   0.0017518806   -0.0000790404   -0.0041206697
  -0.0000068894   -0.0000057904   -0.0000030397
  -0.0000068894   -0.0000057904   -0.0000030397
  -0.0000068894   -0.0000057904   -0.0000030397
  -0.0000342094   -0.0000149004   -0.0000092297
  -0.0000068894   -0.0000057904   -0.0000030397
  -0.0000068894   -0.0000057904   -0.0000030397
  -0.0000068894   -0.0000057904   -0.0000030397
   0.0004650506   -0.0006654904   -0.0000006897
  -0.0000088994    0.0000067196    0.0000032503
  -0.0000089094    0.0000075096    0.0000031303
  -0.0000088994    0.0000067196    0.0000032503
  -0.0000088994    0.0000067196    0.0000032503
  -0.0000088994    0.0000067196    0.0000032503
  -0.0000088994    0.0000067196    0.0000032503
  -0.0000088994    0.0000067196    0.0000032503
   0.0066315106   -0.0002774004   -0.0013681997
   0.0000321106    0.0000242996   -0.0000932997
   0.0000000306    0.0000034696    0.0000168703
   0.0000000306    0.0000034696    0.0000168703
   0.0000000306    0.0000034696    0.0000168703
   0.0000000306    0.0000034696    0.0000168703
   0.0000000306    0.0000034696    0.0000168703
   0.0000000306    0.0000034696    0.0000168703
   0.0000024806    0.0000124396    0.0000002003
   0.0000024806    0.0000124396    0.0000002003
   0.0000024806    0.0000124396    0.0000002003
   0.0000024806    0.0000124396    0.0000002003
  -0.0001638894   -0.0000905304   -0.0001244797
  -0.0001850194    0.0001004696    0.0000894603
   0.0000024806    0.0000124396    0.0000002003
   0.0000024806    0.0000124396    0.0000002003
   0.0000027106    0.0000063496   -0.0000010597
  -0.0000450694    0.0000238496    0.0001997103
   0.0000027106    0.0000063496   -0.0000010597
  -0.0000863094    0.0000452996    0.0001988303
   0.0000027106    0.0000063496   -0.0000010597
   0.0000027106    0.0000063496   -0.0000010597
   0.0000027106    0.0000063496   -0.0000010597
   0.0000027106    0.0000063496   -0.0000010597
   0.0001092006   -0.0000935104    0.0000405803
   0.0000605506    0.0000729796   -0.0000082297
   0.0000938406    0.0000840596    0.0000517603
   0.0000475706   -0.0000099804    0.0000053803
   0.0000076906   -0.0000039004    0.0000092303
   0.0000076906   -0.0000039004    0.0000092303
   0.0000076906   -0.0000039004    0.0000092303
   0.0000076906   -0.0000039004    0.0000092303
   0.0000049806   -0.0000049904    0.0000068603
  -0.0000213394   -0.0000017004    0.0000088403
   0.0000049806   -0.0000049904    0.0000068603
   0.0000049806   -0.0000049904    0.0000068603
   0.0000049806   -0.0000049904    0.0000068603
   0.0015482606    0.0002502396    0.0033654803
   0.0000049806   -0.0000049904    0.0000068603
   0.0000049806   -0.0000049904    0.0000068603
  -0.0000027394    0.0000036996    0.0000017103
   0.0024700506    0.0036051096    0.0009847103
  -0.0000027394    0.0000036996    0.0000017103
  -0.0000026194    0.0000044796    0.0000015803
  -0.0000027394    0.0000036996    0.0000017103
  -0.0000027394    0.0000036996    0.0000017103
  -0.0000027394    0.0000036996    0.0000017103
  -0.0000027394    0.0000036996    0.0000017103
   0.0000316806    0.0000220796    0.0001207303
   0.0082921806   -0.0001769204    0.0016770403
   0.0000049406   -0.0000041904    0.0000112003
   0.0000049406   -0.0000041904    0.0000112003
   0.0000049406   -0.0000041904    0.0000112003
   0.0000049406   -0.0000041904    0.0000112003
   0.0000049406   -0.0000041904    0.0000112003
   0.0000049406   -0.0000041904    0.0000112003
   0.0000456406   -0.0001182104    0.0000363703
   0.0000832906    0.0001725596   -0.0000058997
  -0.0000016294    0.0000013496   -0.0000026397
  -0.0000016294    0.0000013496   -0.0000026397
  -0.0000016294    0.0000013496   -0.0000026397
  -0.0000016294    0.0000013496   -0.0000026397
  -0.0000016294    0.0000013496   -0.0000026397
  -0.0000016294    0.0000013496   -0.0000026397
   0.0000031906   -0.0000037204   -0.0000040897
   0.0004671406    0.0000096296   -0.0000712297
   0.0000031906   -0.0000037204   -0.0000040897
   0.0000031906   -0.0000037204   -0.0000040897
   0.0000031906   -0.0000037204   -0.0000040897
  -0.0000016494   -0.0000040104   -0.0000059397
   0.0000031906   -0.0000037204   -0.0000040897
   0.0000031906   -0.0000037204   -0.0000040897
   0.0018033906    0.0026445396   -0.0006396097
  -0.0000002494   -0.0000036704   -0.0000064797
  -0.0000002594   -0.0000036904   -0.0000064897
  -0.0000002494   -0.0000036704   -0.0000064797
  -0.0000002494   -0.0000036704   -0.0000064797
  -0.0000002494   -0.0000036704   -0.0000064797
  -0.0000002494   -0.0000036704   -0.0000064797
  -0.0000002494   -0.0000036704   -0.0000064797
  -0.0001939894    0.0000765396   -0.0001020697
  -0.0001560094   -0.0001365304    0.0001517703
   0.0000001606   -0.0000064704   -0.0000032097
   0.0000001606   -0.0000064704   -0.0000032097
   0.0000001606   -0.0000064704   -0.0000032097
   0.0000001606   -0.0000064704   -0.0000032097
   0.0000001606   -0.0000064704   -0.0000032097
   0.0000001606   -0.0000064704   -0.0000032097
  -0.0000012894   -0.0000003104    0.0000036003
   0.0010700006   -0.0015862104    0.0001306503
  -0.0000012894   -0.0000003104    0.0000036003
  -0.0000012894   -0.0000003104    0.0000036003
  -0.0000012894   -0.0000003104    0.0000036003
  -0.0000012894   -0.0000003104    0.0000036003
  -0.0000012894   -0.0000003104    0.0000036003
  -0.0000012894   -0.0000003104    0.0000036003
   0.0000832606    0.0001481096    0.0000126803
   0.0000778306   -0.0001711804   -0.0000485897
  -0.0000083994    0.0000000196   -0.0000009597
  -0.0000083994    0.0000000196   -0.0000009597
  -0.0000083994    0.0000000196   -0.0000009597
  -0.0000083994    0.0000000196   -0.0000009597
  -0.0000083994    0.0000000196   -0.0000009597
  -0.0000083994    0.0000000196   -0.0000009597
  -0.0001974794    0.0000912696   -0.0000205797
   0.0000032706   -0.0000072804   -0.0000015797
  -0.0001541094   -0.0001636104   -0.0000816897
   0.0000032706   -0.0000072804   -0.0000015797
   0.0000032706   -0.0000072804   -0.0000015797
   0.0000032706   -0.0000072804   -0.0000015797
   0.0000032706   -0.0000072804   -0.0000015797
   0.0000032706   -0.0000072804   -0.0000015797
  -0.0000040094   -0.0000055704    0.0000002403
   0.0001233106   -0.0000146604    0.0000073903
  -0.0000040094   -0.0000055704    0.0000002403
   0.0001226706   -0.0000134804    0.0000085503
  -0.0000040094   -0.0000055704    0.0000002403
   0.0001530406   -0.0000126704    0.0000069703
  -0.0000040094   -0.0000055704    0.0000002403
   0.0001174206   -0.0000260904   -0.0000129797
  -0.0000035894    0.0000010196   -0.0000157697
   0.0004349306    0.0000898296   -0.0000115597
  -0.0000035894    0.0000010196   -0.0000157697
   0.0001438506    0.0000065596   -0.0000184197
  -0.0000035894    0.0000010196   -0.0000157697
  -0.0000035894    0.0000010196   -0.0000157697
  -0.0000035894    0.0000010196   -0.0000157697
  -0.0000035894    0.0000010196   -0.0000157697
  -0.0000114294    0.0000106996   -0.0000046397
  -0.0000114294    0.0000106996   -0.0000046397
  -0.0000114294    0.0000106996   -0.0000046397
  -0.0000114294    0.0000106996   -0.0000046397
  -0.0000114294    0.0000106996   -0.0000046397
  -0.0000114294    0.0000106996   -0.0000046397
  -0.0000114294    0.0000106996   -0.0000046397
  -0.0000114294    0.0000106996   -0.0000046397
  -0.0001810494   -0.0000522304    0.0001250503
   0.0000033106   -0.0000005404   -0.0000041297
   0.0000033106   -0.0000005404   -0.0000041297
   0.0000033106   -0.0000005404   -0.0000041297
  -0.0000298794   -0.0001119504   -0.0000226597
   0.0000033106   -0.0000005404   -0.0000041297
   0.0000033106   -0.0000005404   -0.0000041297
   0.0000033106   -0.0000005404   -0.0000041297
   0.0044255606   -0.0035563804    0.0031366403
   0.0000026806    0.0000113196   -0.0000044197
   0.0000026806    0.0000113196   -0.0000044197
   0.0000026806    0.0000113196   -0.0000044197
   0.0000026806    0.0000113196   -0.0000044197
   0.0000026806    0.0000113196   -0.0000044197
   0.0000026806    0.0000113196   -0.0000044197
   0.0000026806    0.0000113196   -0.0000044197
   0.0001167906    0.0001212496   -0.0000980797
   0.0001134806   -0.0001094804    0.0001198703
   0.0000066006   -0.0000009704    0.0000003803
   0.0000066006   -0.0000009704    0.0000003803
   0.0000066006   -0.0000009704    0.0000003803
   0.0000066006   -0.0000009704    0.0000003803
   0.0000066006   -0.0000009704    0.0000003803
   0.0000066006   -0.0000009704    0.0000003803
  -0.0000016994    0.0000118796    0.0000030503
  -0.0001594294    0.0001353196    0.0000421203
  -0.0000016994    0.0000118796    0.0000030503
  -0.0001987294   -0.0000777104    0.0000196003
  -0.0000016994    0.0000118796    0.0000030503
  -0.0000016994    0.0000118796    0.0000030503
  -0.0000016994    0.0000118796    0.0000030503
  -0.0000016994    0.0000118796    0.0000030503
  -0.0000008594    0.0000006096   -0.0000001097
  -0.0001691894    0.0000417496   -0.0001368197
  -0.0000008594    0.0000006096   -0.0000001097
  -0.0000008594    0.0000006096   -0.0000001097
  -0.0000008594    0.0000006096   -0.0000001097
  -0.0000135294    0.0001720796    0.0000132003
  -0.0000008594    0.0000006096   -0.0000001097
  -0.0000008594    0.0000006096   -0.0000001097
   0.0000062506    0.0000065196    0.0000044103
   0.0042486606    0.0032209596   -0.0031030297
   0.0000062506    0.0000065196    0.0000044103
   0.0000062506    0.0000065196    0.0000044103
   0.0000062506    0.0000065196    0.0000044103
   0.0000062506    0.0000065196    0.0000044103
   0.0000062506    0.0000065196    0.0000044103
   0.0000062506    0.0000065196    0.0000044103
   0.0000031006    0.0000015796    0.0000046603
  -0.0016170894   -0.0001676104    0.0001429003
   0.0000031006    0.0000015796    0.0000046603
   0.0000031006    0.0000015796    0.0000046603
   0.0000031006    0.0000015796    0.0000046603
  -0.0005865694   -0.0000453404    0.0000010403
   0.0000031006    0.0000015796    0.0000046603
   0.0000031006    0.0000015796    0.0000046603
   0.0002196806    0.0000044596    0.0001566003
   0.0002121106    0.0000189396   -0.0001794797
  -0.0000036794    0.0000053996   -0.0000065797
  -0.0000036794    0.0000053996   -0.0000065797
  -0.0000036794    0.0000053996   -0.0000065797
  -0.0000036794    0.0000053996   -0.0000065797
  -0.0000036794    0.0000053996   -0.0000065797
  -0.0000036794    0.0000053996   -0.0000065797
   0.0003087906   -0.0000241004   -0.0000320597
  -0.0000028094    0.0000056696    0.0000000503
   0.0000935706    0.0000091496    0.0000052703
  -0.0000028094    0.0000056696    0.0000000503
  -0.0000028094    0.0000056696    0.0000000503
  -0.0000028094    0.0000056696    0.0000000503
  -0.0000028094    0.0000056696    0.0000000503
  -0.0000028094    0.0000056696    0.0000000503
  -0.0001922894    0.0000147996    0.0001115703
   0.0000030306   -0.0000032904    0.0000030503
   0.0000030306   -0.0000032904    0.0000030503
   0.0000030306   -0.0000032904    0.0000030503
  -0.0000149594    0.0001898496    0.0000108003
   0.0000030306   -0.0000032904    0.0000030503
   0.0000030306   -0.0000032904    0.0000030503
   0.0000030306   -0.0000032904    0.0000030503
   0.0000704906   -0.0000138704    0.0000148903
  -0.0000034594    0.0000025896   -0.0000030397
  -0.0000034594    0.0000025896   -0.0000030397
  -0.0000034594    0.0000025896   -0.0000030397
   0.0001665506   -0.0000110704    0.0001714303
  -0.0000034594    0.0000025896   -0.0000030397
  -0.0000034594    0.0000025896   -0.0000030397
  -0.0000034594    0.0000025896   -0.0000030397
   0.0057035106    0.0040979096    0.0045011403
  -0.0000032194   -0.0000043904   -0.0000008197
  -0.0000032194   -0.0000043904   -0.0000008197
  -0.0000032194   -0.0000043904   -0.0000008197
  -0.0000032194   -0.0000043904   -0.0000008197
  -0.0000032194   -0.0000043904   -0.0000008197
  -0.0000032194   -0.0000043904   -0.0000008197
  -0.0000032194   -0.0000043904   -0.0000008197
   0.0001307206   -0.0001042004   -0.0001165997
   0.0000872806    0.0000975296    0.0001344103
  -0.0000017494   -0.0000008204    0.0000077503
  -0.0000017494   -0.0000008204    0.0000077503
  -0.0000017494   -0.0000008204    0.0000077503
  -0.0000017494   -0.0000008204    0.0000077503
  -0.0000017494   -0.0000008204    0.0000077503
  -0.0000017494   -0.0000008204    0.0000077503
   0.0000068506   -0.0000058404   -0.0000082097
  -0.0001493394   -0.0000146004   -0.0001072597
   0.0000068506   -0.0000058404   -0.0000082097
   0.0000068506   -0.0000058404   -0.0000082097
   0.0000068506   -0.0000058404   -0.0000082097
  -0.0000277794   -0.0001310104   -0.0000047797
   0.0000068506   -0.0000058404   -0.0000082097
   0.0000068506   -0.0000058404   -0.0000082097
   0.0000025006    0.0000008096   -0.0000018897
   0.0000822906   -0.0000025704   -0.0000107097
   0.0000025006    0.0000008096   -0.0000018897
   0.0000025006    0.0000008096   -0.0000018897
   0.0000025006    0.0000008096   -0.0000018897
   0.0001633806    0.0000076596   -0.0001692797
   0.0000025006    0.0000008096   -0.0000018897
   0.0000025006    0.0000008096   -0.0000018897
   0.0000039806   -0.0000024904    0.0000024703
   0.0035719506   -0.0026089004   -0.0027460297
   0.0000039806   -0.0000024904    0.0000024703
   0.0000039806   -0.0000024904    0.0000024703
   0.0000039806   -0.0000024904    0.0000024703
   0.0000039806   -0.0000024904    0.0000024703
   0.0000039806   -0.0000024904    0.0000024703
   0.0000039806   -0.0000024904    0.0000024703

1    
 -0.0100000000000000   0.0000000000000000   0.0000000000000000
   0.0413611407    0.0048078196    0.0019028102
  -0.0000036393   -0.0000070804   -0.0000045198
  -0.0000036393   -0.0000070804   -0.0000045198
  -0.0000036393   -0.0000070804   -0.0000045198
  -0.0000036393   -0.0000070804   -0.0000045198
  -0.0000036393   -0.0000070804   -0.0000045198
  -0.0000036393   -0.0000070804   -0.0000045198
  -0.0000036393   -0.0000070804   -0.0000045198
  -0.0000009293   -0.0000145404    0.0000015702
  -0.0000013793   -0.0000101004   -0.0000006098
  -0.0000013793   -0.0000101004   -0.0000006098
  -0.0000013793   -0.0000101004   -0.0000006098
  -0.0004536493   -0.0000576904    0.0000149002
  -0.0000013793   -0.0000101004   -0.0000006098
  -0.0000014093   -0.0000109204   -0.0000007898
  -0.0000013793   -0.0000101004   -0.0000006098
   0.0000995707    0.0000671796    0.0000165602
   0.0000068107   -0.0000061004   -0.0000055998
   0.0001232307    0.0000730096   -0.0000252698
   0.0000068107   -0.0000061004   -0.0000055998
   0.0000068107   -0.0000061004   -0.0000055998
   0.0000068107   -0.0000061004   -0.0000055998
   0.0000068107   -0.0000061004   -0.0000055998
   0.0000068107   -0.0000061004   -0.0000055998
  -0.0000029593   -0.0000046204    0.0000044102
  -0.0000029593   -0.0000046204    0.0000044102
  -0.0000029593   -0.0000046204    0.0000044102
  -0.0000029593   -0.0000046204    0.0000044102
   0.0001067807    0.0000185496    0.0002056002
  -0.0000029593   -0.0000046204    0.0000044102
   0.0001189907   -0.0000160804    0.0001648402
  -0.0000029593   -0.0000046204    0.0000044102
  -0.0017663993    0.0000682596    0.0040505602
  -0.0000068893   -0.0000057904   -0.0000030398
  -0.0000068893   -0.0000057904   -0.0000030398
  -0.0000068893   -0.0000057904   -0.0000030398
   0.0000215307    0.0000034196    0.0000075902
  -0.0000068893   -0.0000057904   -0.0000030398
  -0.0000068893   -0.0000057904   -0.0000030398
  -0.0000068893   -0.0000057904   -0.0000030398
  -0.0004658393    0.0006516896   -0.0000003198
  -0.0000088993    0.0000067196    0.0000032502
  -0.0000088693    0.0000058596    0.0000033902
  -0.0000088993    0.0000067196    0.0000032502
  -0.0000088993    0.0000067196    0.0000032502
  -0.0000088993    0.0000067196    0.0000032502
  -0.0000088993    0.0000067196    0.0000032502
  -0.0000088993    0.0000067196    0.0000032502
  -0.0063603593    0.0002749996    0.0013412302
  -0.0000321793   -0.0000175204    0.0001282102
   0.0000000307    0.0000034696    0.0000168702
   0.0000000307    0.0000034696    0.0000168702
   0.0000000307    0.0000034696    0.0000168702
   0.0000000307    0.0000034696    0.0000168702
   0.0000000307    0.0000034696    0.0000168702
   0.0000000307    0.0000034696    0.0000168702
   0.0000024807    0.0000124396    0.0000002002
   0.0000024807    0.0000124396    0.0000002002
   0.0000024807    0.0000124396    0.0000002002
   0.0000024807    0.0000124396    0.0000002002
   0.0001676407    0.0001134096    0.0001232902
   0.0001913607   -0.0000777704   -0.0000904798
   0.0000024807    0.0000124396    0.0000002002
   0.0000024807    0.0000124396    0.0000002002
   0.0000027107    0.0000063496   -0.0000010598
   0.0000495507   -0.0000118704   -0.0002032498
   0.0000027107    0.0000063496   -0.0000010598
   0.0000916507   -0.0000319004   -0.0002025698
   0.0000027107    0.0000063496   -0.0000010598
   0.0000027107    0.0000063496   -0.0000010598
   0.0000027107    0.0000063496   -0.0000010598
   0.0000027107    0.0000063496   -0.0000010598
  -0.0000947493    0.0000843496   -0.0000217598
  -0.0000436893   -0.0000816504    0.0000271402
  -0.0000785193   -0.0000909804   -0.0000331998
  -0.0000306093    0.0000032496    0.0000133202
   0.0000076907   -0.0000039004    0.0000092302
   0.0000076907   -0.0000039004    0.0000092302
   0.0000076907   -0.0000039004    0.0000092302
   0.0000076907   -0.0000039004    0.0000092302
   0.0000049807   -0.0000049904    0.0000068602
   0.0000301407   -0.0000083804    0.0000095902
   0.0000049807   -0.0000049904    0.0000068602
   0.0000049807   -0.0000049904    0.0000068602
   0.0000049807   -0.0000049904    0.0000068602
  -0.0015389193   -0.0002639804   -0.0034068898
   0.0000049807   -0.0000049904    0.0000068602
   0.0000049807   -0.0000049904    0.0000068602
  -0.0000027393    0.0000036996    0.0000017102
  -0.0025108493   -0.0036858004   -0.0010070598
  -0.0000027393    0.0000036996    0.0000017102
  -0.0000028593    0.0000028596    0.0000018402
  -0.0000027393    0.0000036996    0.0000017102
  -0.0000027393    0.0000036996    0.0000017102
  -0.0000027393    0.0000036996    0.0000017102
  -0.0000027393    0.0000036996    0.0000017102
  -0.0000216893   -0.0000302404   -0.0000972298
  -0.0086089093    0.0001739696   -0.0017281598
   0.0000049407   -0.0000041904    0.0000112002
   0.0000049407   -0.0000041904    0.0000112002
   0.0000049407   -0.0000041904    0.0000112002
   0.0000049407   -0.0000041904    0.0000112002
   0.0000049407   -0.0000041904    0.0000112002
   0.0000049407   -0.0000041904    0.0000112002
  -0.0000474893    0.0001191796   -0.0000403298
  -0.0000893793   -0.0001716104    0.0000024302
  -0.0000016293    0.0000013496   -0.0000026398
  -0.0000016293    0.0000013496   -0.0000026398
  -0.0000016293    0.0000013496   -0.0000026398
  -0.0000016293    0.0000013496   -0.0000026398
  -0.0000016293    0.0000013496   -0.0000026398
  -0.0000016293    0.0000013496   -0.0000026398
   0.0000031907   -0.0000037204   -0.0000040898
  -0.0004609093   -0.0000197104    0.0000665802
   0.0000031907   -0.0000037204   -0.0000040898
   0.0000031907   -0.0000037204   -0.0000040898
   0.0000031907   -0.0000037204   -0.0000040898
   0.0000079707   -0.0000017904   -0.0000007098
   0.0000031907   -0.0000037204   -0.0000040898
   0.0000031907   -0.0000037204   -0.0000040898
  -0.0017409393   -0.0025805504    0.0006007602
  -0.0000002493   -0.0000036704   -0.0000064798
  -0.0000002293   -0.0000036504   -0.0000064798
  -0.0000002493   -0.0000036704   -0.0000064798
  -0.0000002493   -0.0000036704   -0.0000064798
  -0.0000002493   -0.0000036704   -0.0000064798
  -0.0000002493   -0.0000036704   -0.0000064798
  -0.0000002493   -0.0000036704   -0.0000064798
   0.0001928107   -0.0000875404    0.0000941402
   0.0001574607    0.0001255196   -0.0001599298
   0.0000001607   -0.0000064704   -0.0000032098
   0.0000001607   -0.0000064704   -0.0000032098
   0.0000001607   -0.0000064704   -0.0000032098
   0.0000001607   -0.0000064704   -0.0000032098
   0.0000001607   -0.0000064704   -0.0000032098
   0.0000001607   -0.0000064704   -0.0000032098
  -0.0000012893   -0.0000003104    0.0000036002
  -0.0010907393    0.0016357796   -0.0001299698
  -0.0000012893   -0.0000003104    0.0000036002
  -0.0000012893   -0.0000003104    0.0000036002
  -0.0000012893   -0.0000003104    0.0000036002
  -0.0000012893   -0.0000003104    0.0000036002
  -0.0000012893   -0.0000003104    0.0000036002
  -0.0000012893   -0.0000003104    0.0000036002
  -0.0000975693   -0.0001463204   -0.0000130298
  -0.0000971593    0.0001725196    0.0000485402
  -0.0000083993    0.0000000196   -0.0000009598
  -0.0000083993    0.0000000196   -0.0000009598
  -0.0000083993    0.0000000196   -0.0000009598
  -0.0000083993    0.0000000196   -0.0000009598
  -0.0000083993    0.0000000196   -0.0000009598
  -0.0000083993    0.0000000196   -0.0000009598
   0.0002050907   -0.0001049504    0.0000162402
   0.0000032707   -0.0000072804   -0.0000015798
   0.0001617507    0.0001480896    0.0000770602
   0.0000032707   -0.0000072804   -0.0000015798
   0.0000032707   -0.0000072804   -0.0000015798
   0.0000032707   -0.0000072804   -0.0000015798
   0.0000032707   -0.0000072804   -0.0000015798
   0.0000032707   -0.0000072804   -0.0000015798
  -0.0000040093   -0.0000055704    0.0000002402
  -0.0001311993    0.0000037896   -0.0000080298
  -0.0000040093   -0.0000055704    0.0000002402
  -0.0001306893    0.0000020596   -0.0000089798
  -0.0000040093   -0.0000055704    0.0000002402
  -0.0001612893    0.0000010596   -0.0000059998
  -0.0000040093   -0.0000055704    0.0000002402
  -0.0001250493    0.0000154196    0.0000136802
  -0.0000035893    0.0000010196   -0.0000157698
  -0.0004420493   -0.0000778004   -0.0000232798
  -0.0000035893    0.0000010196   -0.0000157698
  -0.0001508993   -0.0000050904   -0.0000122398
  -0.0000035893    0.0000010196   -0.0000157698
  -0.0000035893    0.0000010196   -0.0000157698
  -0.0000035893    0.0000010196   -0.0000157698
  -0.0000035893    0.0000010196   -0.0000157698
  -0.0000114293    0.0000106996   -0.0000046398
  -0.0000114293    0.0000106996   -0.0000046398
  -0.0000114293    0.0000106996   -0.0000046398
  -0.0000114293    0.0000106996   -0.0000046398
  -0.0000114293    0.0000106996   -0.0000046398
  -0.0000114293    0.0000106996   -0.0000046398
  -0.0000114293    0.0000106996   -0.0000046398
  -0.0000114293    0.0000106996   -0.0000046398
   0.0001880107    0.0000506096   -0.0001346898
   0.0000033107   -0.0000005404   -0.0000041298
   0.0000033107   -0.0000005404   -0.0000041298
   0.0000033107   -0.0000005404   -0.0000041298
   0.0000363107    0.0001104696    0.0000135502
   0.0000033107   -0.0000005404   -0.0000041298
   0.0000033107   -0.0000005404   -0.0000041298
   0.0000033107   -0.0000005404   -0.0000041298
  -0.0043354893    0.0034829096   -0.0030536298
   0.0000026807    0.0000113196   -0.0000044198
   0.0000026807    0.0000113196   -0.0000044198
   0.0000026807    0.0000113196   -0.0000044198
   0.0000026807    0.0000113196   -0.0000044198
   0.0000026807    0.0000113196   -0.0000044198
   0.0000026807    0.0000113196   -0.0000044198
   0.0000026807    0.0000113196   -0.0000044198
  -0.0001032093   -0.0001223404    0.0000975602
  -0.0001005493    0.0001083896   -0.0001202898
   0.0000066007   -0.0000009704    0.0000003802
   0.0000066007   -0.0000009704    0.0000003802
   0.0000066007   -0.0000009704    0.0000003802
   0.0000066007   -0.0000009704    0.0000003802
   0.0000066007   -0.0000009704    0.0000003802
   0.0000066007   -0.0000009704    0.0000003802
  -0.0000016993    0.0000118796    0.0000030502
   0.0001548807   -0.0001124304   -0.0000372798
  -0.0000016993    0.0000118796    0.0000030502
   0.0001942707    0.0001021996   -0.0000149298
  -0.0000016993    0.0000118796    0.0000030502
  -0.0000016993    0.0000118796    0.0000030502
  -0.0000016993    0.0000118796    0.0000030502
  -0.0000016993    0.0000118796    0.0000030502
  -0.0000008593    0.0000006096   -0.0000001098
   0.0001663207   -0.0000417204    0.0001354002
  -0.0000008593    0.0000006096   -0.0000001098
  -0.0000008593    0.0000006096   -0.0000001098
  -0.0000008593    0.0000006096   -0.0000001098
   0.0000110507   -0.0001705404   -0.0000138698
  -0.0000008593    0.0000006096   -0.0000001098
  -0.0000008593    0.0000006096   -0.0000001098
   0.0000062507    0.0000065196    0.0000044102
  -0.0043144393   -0.0032934404    0.0032020602
   0.0000062507    0.0000065196    0.0000044102
   0.0000062507    0.0000065196    0.0000044102
   0.0000062507    0.0000065196    0.0000044102
   0.0000062507    0.0000065196    0.0000044102
   0.0000062507    0.0000065196    0.0000044102
   0.0000062507    0.0000065196    0.0000044102
   0.0000031007    0.0000015796    0.0000046602
   0.0016234007    0.0001729696   -0.0001790798
   0.0000031007    0.0000015796    0.0000046602
   0.0000031007    0.0000015796    0.0000046602
   0.0000031007    0.0000015796    0.0000046602
   0.0005926707    0.0000481596    0.0000048202
   0.0000031007    0.0000015796    0.0000046602
   0.0000031007    0.0000015796    0.0000046602
  -0.0002238193    0.0000064696   -0.0001672398
  -0.0002224793   -0.0000083504    0.0001686202
  -0.0000036793    0.0000053996   -0.0000065798
  -0.0000036793    0.0000053996   -0.0000065798
  -0.0000036793    0.0000053996   -0.0000065798
  -0.0000036793    0.0000053996   -0.0000065798
  -0.0000036793    0.0000053996   -0.0000065798
  -0.0000036793    0.0000053996   -0.0000065798
  -0.0003142093    0.0000207796    0.0000269802
  -0.0000028093    0.0000056696    0.0000000502
  -0.0000992593    0.0000023796   -0.0000042998
  -0.0000028093    0.0000056696    0.0000000502
  -0.0000028093    0.0000056696    0.0000000502
  -0.0000028093    0.0000056696    0.0000000502
  -0.0000028093    0.0000056696    0.0000000502
  -0.0000028093    0.0000056696    0.0000000502
   0.0001986907   -0.0000204904   -0.0001073498
   0.0000030307   -0.0000032904    0.0000030502
   0.0000030307   -0.0000032904    0.0000030502
   0.0000030307   -0.0000032904    0.0000030502
   0.0000219807   -0.0001964304   -0.0000054198
   0.0000030307   -0.0000032904    0.0000030502
   0.0000030307   -0.0000032904    0.0000030502
   0.0000030307   -0.0000032904    0.0000030502
  -0.0000748793    0.0000191196   -0.0000251798
  -0.0000034593    0.0000025896   -0.0000030398
  -0.0000034593    0.0000025896   -0.0000030398
  -0.0000034593    0.0000025896   -0.0000030398
  -0.0001733193    0.0000165896   -0.0001761298
  -0.0000034593    0.0000025896   -0.0000030398
  -0.0000034593    0.0000025896   -0.0000030398
  -0.0000034593    0.0000025896   -0.0000030398
  -0.0056094893   -0.0040028804   -0.0043806798
  -0.0000032193   -0.0000043904   -0.0000008198
  -0.0000032193   -0.0000043904   -0.0000008198
  -0.0000032193   -0.0000043904   -0.0000008198
  -0.0000032193   -0.0000043904   -0.0000008198
  -0.0000032193   -0.0000043904   -0.0000008198
  -0.0000032193   -0.0000043904   -0.0000008198
  -0.0000032193   -0.0000043904   -0.0000008198
  -0.0001335593    0.0001015296    0.0001306002
  -0.0000908493   -0.0000998704   -0.0001199698
  -0.0000017493   -0.0000008204    0.0000077502
  -0.0000017493   -0.0000008204    0.0000077502
  -0.0000017493   -0.0000008204    0.0000077502
  -0.0000017493   -0.0000008204    0.0000077502
  -0.0000017493   -0.0000008204    0.0000077502
  -0.0000017493   -0.0000008204    0.0000077502
   0.0000068507   -0.0000058404   -0.0000082098
   0.0001617707    0.0000038296    0.0000902602
   0.0000068507   -0.0000058404   -0.0000082098
   0.0000068507   -0.0000058404   -0.0000082098
   0.0000068507   -0.0000058404   -0.0000082098
   0.0000412207    0.0001193896   -0.0000124898
   0.0000068507   -0.0000058404   -0.0000082098
   0.0000068507   -0.0000058404   -0.0000082098
   0.0000025007    0.0000008096   -0.0000018898
  -0.0000797793    0.0000044296    0.0000030102
   0.0000025007    0.0000008096   -0.0000018898
   0.0000025007    0.0000008096   -0.0000018898
   0.0000025007    0.0000008096   -0.0000018898
  -0.0001584693   -0.0000062904    0.0001663602
   0.0000025007    0.0000008096   -0.0000018898
   0.0000025007    0.0000008096   -0.0000018898
   0.0000039807   -0.0000024904    0.0000024702
  -0.0036333393    0.0026768296    0.0028342902
   0.0000039807   -0.0000024904    0.0000024702
   0.0000039807   -0.0000024904    0.0000024702
   0.0000039807   -0.0000024904    0.0000024702