LAMMPS data file via write_data, version 2 Aug 2023, timestep = 277, units = metal

39 atoms
2 atom types

-0.08066126538380453 8.632661265383794 xlo xhi
-0.08066044366664783 8.632660443666657 ylo yhi
-0.08066220591341634 8.632662205913432 zlo zhi
5.335370267308253e-16 5.335372425438122e-16 9.673733383038617e-16 xy xz yz

Atom Type Labels

1 H
2 He

Masses

1 24.32
2 65.39

Atoms # atomic

3 1 -0.07452548506064322 4.353013703933997 2.580624096401355 0 0 0
8 2 0.02418247149292542 1.9010621184793275 8.549398256119723 0 0 -1
10 2 0.005218173987720912 0.0215826107570445 1.9010611026928907 0 0 0
12 2 1.9036593833587208 8.549397048639 8.53042232416669 0 -1 -1
18 2 1.2999447972734228 4.372093069460222 -0.05910407443265156 0 0 0
27 2 1.995092568221348 1.8090455750417707 1.6623493688875868 0 0 0
30 2 2.942393847567372 4.283588454496631 2.0015201973899392 0 0 0
1 1 4.355617124748826 2.580621068009464 8.629134784421733 0 0 -1
13 2 6.653568054863516 0.00260685715477188 0.021577828791270504 0 0 0
16 2 4.182525378614211 8.611092914820007 1.297325922031942 0 -1 0
19 2 7.257278959574909 4.179945782156547 8.611090227519849 0 0 -1
20 2 6.89225358149797 1.9924792307090398 1.809041728720962 0 0 0
28 2 5.684383702641336 4.385036960072061 2.017077253791165 0 0 0
38 2 4.387651610054081 2.0170782915697743 2.870223383825217 0 0 0
9 2 8.53304991243213 6.6509670894649 0.0026141795406141046 -1 0 0
22 2 1.8139622320505713 6.740669156443935 1.8113465283234431 0 0 0
2 1 4.201601220640359 5.971369507544701 -0.0771414368890331 0 0 0
25 2 6.745571910714578 6.889638740761219 1.9924742756622795 0 0 0
37 2 4.271029909235794 6.550470554374029 2.9397817572595346 0 0 0
5 1 2.583240988862307 8.629136999208821 4.19899376159557 0 -1 0
11 2 8.552000535825117 8.53042852908901 6.650967754534412 -1 -1 0
14 2 8.613708459220094 1.2973288143827453 4.372105220484974 -1 0 0
17 2 4.374705680267355 -0.059107050803123576 7.254668898960101 0 0 0
21 2 1.8116520880548799 1.6623645043048658 6.559528684141629 0 0 0
34 2 2.0196942017484165 2.8702190033646056 4.166956620138434 0 0 0
36 2 4.286195215608357 2.001520959900229 5.612217166565625 0 0 0
6 1 5.973986104677473 -0.07714455801944901 4.353008530671027 0 0 0
26 2 6.7432667853189345 1.8113396739018208 6.740658336320019 0 0 0
33 2 6.553083173400324 2.9397770004668526 4.283584906219733 0 0 0
4 1 8.631748910580384 4.198989149269657 5.971366440146667 -1 0 0
7 2 4.278611809280573 4.275993269517504 4.275995700623444 0 0 0
15 2 -0.056481729452787496 7.254663664421999 4.179935200817001 0 0 0
24 2 1.6649634243666387 6.559532437071939 6.7429394175978725 0 0 0
29 2 2.8728360085931848 4.166964234287546 6.534912059534271 0 0 0
32 2 2.0041440559906154 5.6122127542372615 4.268405593135102 0 0 0
39 2 4.169578678472002 6.5349106003207265 5.681771639827089 0 0 0
23 2 6.562142516376218 6.74293702438789 6.88965884692139 0 0 0
31 2 5.614823521756858 4.268402812433377 6.550468865552568 0 0 0
35 2 6.537526589112578 5.68177144436747 4.385038651989096 0 0 0

Velocities

3 0 0 0
8 0 0 0
10 0 0 0
12 0 0 0
18 0 0 0
27 0 0 0
30 0 0 0
1 0 0 0
13 0 0 0
16 0 0 0
19 0 0 0
20 0 0 0
28 0 0 0
38 0 0 0
9 0 0 0
22 0 0 0
2 0 0 0
25 0 0 0
37 0 0 0
5 0 0 0
11 0 0 0
14 0 0 0
17 0 0 0
21 0 0 0
34 0 0 0
36 0 0 0
6 0 0 0
26 0 0 0
33 0 0 0
4 0 0 0
7 0 0 0
15 0 0 0
24 0 0 0
29 0 0 0
32 0 0 0
39 0 0 0
23 0 0 0
31 0 0 0
35 0 0 0
