104
Lattice="10.92415056891 0.0 0.0 0.0 17.666507542658 0.0 0.0 0.0 29.341493959376002" Properties=species:S:1:pos:R:3:forces:R:3:energies:R:1 energy=-179.43503546245202 stress="0.0005427122259590366 -4.1941498099511006e-07 6.09719882244605e-06 -4.1941498099511006e-07 0.0005578627294249302 1.5205507018813178e-06 6.09719882244605e-06 1.5205507018813178e-06 5.815756859765271e-08" free_energy=-179.43503546245202 pbc="T T F"
Zn       4.11857712      11.02916455      18.61282457       0.00105635       0.00304560      -0.00641160      -1.31610566
Zn       4.11924507       2.23297754      18.58916873       0.00604152      -0.00449285       0.00638230      -1.30886177
Zn       9.61553445      11.03979480      18.33738136       0.00227868       0.00063873       0.00521269      -0.49511762
Zn       9.61130082       2.21405387      18.31541697       0.00946729      -0.00261485       0.01315557      -0.49501442
Zn       6.80490550      15.43352999      10.75232522      -0.00604158       0.00449286      -0.00638229      -1.30886178
Zn       6.80557345       6.63734301      10.72866939      -0.00105636      -0.00304560       0.00641160      -1.31610566
Zn       1.31284975      15.45245368      11.02607699      -0.00946729       0.00261485      -0.01315556      -0.49501442
Zn       1.30861612       6.62671275      11.00411260      -0.00227868      -0.00063873      -0.00521269      -0.49511762
Mg       6.83191138       9.47026517      18.35814649      -0.01414250       0.01155980       0.00138163      -1.80626761
Mg       6.82924904       0.65631444      18.34709324      -0.01310696       0.01816619       0.00661742      -1.80551253
Mg       1.41381325       9.46925145      18.29126670      -0.00173142      -0.00333908      -0.01135445      -1.83706002
Mg       1.41028775       0.66543244      18.27872785       0.00182486      -0.00647229       0.00042441      -1.83452272
Mg       4.09140306      13.87897045      10.99813893      -0.00558157      -0.00988772       0.01010995      -1.81201338
Mg       4.09070111       5.07219841      10.97766365       0.01512139       0.00593014      -0.00227497      -1.80342539
Mg       9.51412171      13.87722732      11.06571712       0.00054726      -0.00518358       0.00501370      -1.83974229
Mg       9.51274613       5.07367108      11.04656153       0.00024813      -0.00606192       0.00735385      -1.83318230
Mg       9.51033733       8.19725611      11.05022726       0.00173140       0.00333905       0.01135443      -1.83706002
Mg       4.09223918       8.19624239      10.98334748       0.01414265      -0.01156006      -0.00138176      -1.80626758
Mg       9.51386281      17.00107511      11.06276611      -0.00182488       0.00647225      -0.00042443      -1.83452271
Mg       4.09490153      17.01019312      10.99440072       0.01310705      -0.01816637      -0.00661750      -1.80551251
Mg       1.41140444      12.59283648      18.29493243      -0.00024811       0.00606189      -0.00735384      -1.83318230
Mg       1.41002887       3.78928023      18.27577684      -0.00054722       0.00518352      -0.00501367      -1.83974229
Mg       6.83344947      12.59430915      18.36383030      -0.01512153      -0.00593039       0.00227509      -1.80342536
Mg       6.83274751       3.78753710      18.34335503       0.00558151       0.00988761      -0.01010990      -1.81201336
Zn       5.51418223       6.62531714      17.62466185      -0.01695993      -0.00373242       0.00164822      -0.87170250
Zn       5.50852468      15.46373688      17.63791027      -0.02337349       0.00125867       0.00006569      -0.86534231
Zn       0.18080450       6.62525463      17.64670313      -0.00332107       0.00232486      -0.00397280      -0.85488500
Zn       0.18026532      15.46120880      17.65083294      -0.01616861      -0.00026329      -0.00434948      -0.84672133
Zn       5.40996834      11.04119041      11.71683211       0.01695994       0.00373242      -0.00164822      -0.87170250
Zn       5.41562590       2.20277066      11.70358369       0.02337349      -0.00125867      -0.00006569      -0.86534231
Zn      10.74334607      11.04125291      11.69479083       0.00332107      -0.00232486       0.00397280      -0.85488501
Zn      10.74388525       2.20529875      11.69066102       0.01616861       0.00026329       0.00434948      -0.84672133
Zn       8.21917769      11.04033795      11.72946009      -0.00897245       0.00099618       0.00085796      -0.88207198
Zn       2.86083907      11.04229132      11.69518795       0.01183686      -0.00017759      -0.00422856      -0.85784856
Zn       8.22377036       2.20347533      11.71725220      -0.02286181       0.00141762       0.00439555      -0.87502810
Zn       2.86987208       2.20601700      11.68123602       0.00154619      -0.00167609      -0.00019897      -0.84973028
Zn       2.70038021      15.46303222      17.62424175       0.02286181      -0.00141762      -0.00439555      -0.87502810
Zn       2.70497288       6.62616960      17.61203387       0.00897245      -0.00099618      -0.00085796      -0.88207198
Zn       8.05427849      15.46049054      17.66025794      -0.00154619       0.00167609       0.00019897      -0.84973028
Zn       8.06331150       6.62421623      17.64630601      -0.01183686       0.00017759       0.00422856      -0.85784856
Zn       4.09316102       8.77308190      16.81388127      -0.00632043       0.00211983      -0.00290239      -1.04677928
Zn       4.08554347      17.61714810      16.81414089       0.00364683      -0.02314642      -0.00597433      -1.04299336
Zn       9.58629256       8.79011288      17.11199621      -0.00852314      -0.00111041       0.00592883      -1.11062314
Zn       9.58392758      17.62867332      17.09787210      -0.00783876      -0.00633087       0.01081102      -1.10818516
Zn       6.83276886      13.18717492      12.54191464       0.00134627      -0.01301525       0.00403085      -1.04678018
Zn       6.83666547       4.36013398      12.51501780       0.00207479      -0.01435595       0.00485434      -1.04266187
Zn       1.33479272      13.20347401      12.24935065       0.01272815      -0.00095480      -0.00848933      -1.11231495
Zn       1.34183326       4.37546823      12.22457661       0.00581423      -0.00297867      -0.00810414      -1.10760354
Zn       6.83098955       8.89342565      12.52761269       0.00632043      -0.00211984       0.00290238      -1.04677929
Zn       1.33785801       8.87639466      12.22949776       0.00852313       0.00111041      -0.00592883      -1.11062314
Zn       6.83860710       0.04935944      12.52735307      -0.00364683       0.02314641       0.00597433      -1.04299336
Zn       1.34022299       0.03783423      12.24362186       0.00783875       0.00633087      -0.01081102      -1.10818516
Zn       4.08748510      13.30637356      16.82647616      -0.00207479       0.01435595      -0.00485433      -1.04266187
Zn       4.09138171       4.47933263      16.79957931      -0.00134627       0.01301524      -0.00403084      -1.04678018
Zn       9.58231731      13.29103932      17.11691735      -0.00581423       0.00297867       0.00810414      -1.10760354
Zn       9.58935785       4.46303354      17.09214332      -0.01272815       0.00095480       0.00848933      -1.11231495
Zn       8.18266983      11.03661266      16.15609949      -0.00527994       0.00236811      -0.00034932      -1.18051400
Zn       8.18355398       2.21501531      16.13503604      -0.00624292      -0.00241923       0.00230172      -1.17895018
Zn       2.75928465      11.04033342      15.97806745      -0.01264856      -0.00298966       0.00326693      -1.12114997
Zn       2.76390492       2.21422998      15.96600884      -0.02769043       0.00068465      -0.00287584      -1.12174042
Zn       2.74059659      15.45149224      13.20645792       0.00624292       0.00241923      -0.00230172      -1.17895018
Zn       2.74148073       6.62989489      13.18539447       0.00527994      -0.00236811       0.00034932      -1.18051399
Zn       8.16024565      15.45227757      13.37548512       0.02769043      -0.00068465       0.00287585      -1.12174042
Zn       8.16486592       6.62617413      13.36342651       0.01264856       0.00298966      -0.00326693      -1.12114997
Zn      10.87401513       6.63097965      13.28218085       0.00351315      -0.00303229      -0.00705134      -1.18956406
Zn       5.54518446       6.62358515      13.23711984      -0.00291404       0.00286601      -0.01008009      -1.12823538
Zn      10.87368822      15.44875375      13.30231691      -0.00397358       0.00484420      -0.00341143      -1.18813541
Zn       5.54366227      15.45496309      13.25537371      -0.01149825      -0.00096349      -0.01008250      -1.12707488
Zn       0.05013544      11.03552790      16.05931311      -0.00351315       0.00303228       0.00705134      -1.18956406
Zn       0.05046235       2.21775380      16.03917705       0.00397358      -0.00484420       0.00341143      -1.18813541
Zn       5.37896612      11.04292240      16.10437412       0.00291404      -0.00286601       0.01008009      -1.12823538
Zn       5.38048830       2.21154445      16.08612025       0.01149826       0.00096350       0.01008250      -1.12707488
Mg       6.80654935       4.94703533      15.43753400      -0.00479520      -0.00409823       0.00404287      -1.63681685
Mg       6.80128855      13.77253722      15.46454189      -0.00075423       0.00097313      -0.00663245      -1.63786172
Mg       1.39627788       4.97652070      15.30933867       0.00187981      -0.01441416       0.00589449      -1.62357056
Mg       1.39254952      13.79732573      15.33333396       0.00081541      -0.00611296       0.00747559      -1.62371522
Mg       4.12033658       9.35989100      13.89220084       0.00127376      -0.00135110       0.00293389      -1.63739601
Mg       4.11953287       0.52541224      13.88930299       0.00413226      -0.00076134       0.00136093      -1.63724737
Mg       9.52881017       9.38606514      14.02496192      -0.00157457      -0.01169904      -0.01253519      -1.62398083
Mg       9.53062539       0.55199659      14.01518728       0.00026671      -0.00951823      -0.00136196      -1.62345077
Mg       9.52787269      12.68998685      14.03215530      -0.00187981       0.01441416      -0.00589450      -1.62357056
Mg       4.11760122      12.71947221      13.90395996       0.00479520       0.00409823      -0.00404288      -1.63681685
Mg       9.53160105       3.86918182      14.00816000      -0.00081541       0.00611296      -0.00747559      -1.62371522
Mg       4.12286202       3.89397033      13.87695206       0.00075423      -0.00097313       0.00663243      -1.63786172
Mg       1.39352518      17.11451096      15.32630668      -0.00026671       0.00951823       0.00136196      -1.62345077
Mg       1.39534040       8.28044240      15.31653204       0.00157457       0.01169904       0.01253519      -1.62398083
Mg       6.80461769      17.14109530      15.45219097      -0.00413226       0.00076134      -0.00136092      -1.63724737
Mg       6.80381399       8.30661655      15.44929312      -0.00127376       0.00135111      -0.00293387      -1.63739602
Zn       4.10292168       6.63043835      15.30963221      -0.01072267      -0.00193614       0.01125787      -1.22632875
Zn       4.10291070      15.45773558      15.32675126      -0.01080649       0.00055516       0.02113446      -1.22426786
Zn       9.59959217       6.63181461      15.49492131      -0.01077857      -0.00042128       0.00330027      -1.21296544
Zn       9.58730067      15.45361753      15.50972348      -0.00386726       0.00266957      -0.00077668      -1.21266164
Zn       6.82122889      11.03606920      14.03186175       0.01072267       0.00193614      -0.01125787      -1.22632875
Zn       6.82123987       2.20877197      14.01474270       0.01080649      -0.00055516      -0.02113446      -1.22426786
Zn       1.32455840      11.03469294      13.84657265       0.01077857       0.00042128      -0.00330027      -1.21296544
Zn       1.33684990       2.21289002      13.83177048       0.00386726      -0.00266957       0.00077667      -1.21266164
O        5.95697254      11.03168565      19.15189071       0.01933422      -0.00294086      -0.01268541      -7.21544584
O        5.96158559       2.22703333      19.12920419      -0.02821479      -0.03308022       0.00220736      -7.21743936
O        2.27253704      11.03063415      19.10067355      -0.00233334       0.00120785      -0.00686862      -7.21021180
O        2.27143868       2.22906751      19.08116312       0.01430393      -0.01012146      -0.00272452      -7.21069619
O        4.96256498      15.43947419      10.21228976       0.02821475       0.03308051      -0.00220733      -7.21743936
O        4.96717803       6.63482187      10.18960325      -0.01933422       0.00294136       0.01268542      -7.21544584
O        8.65271189      15.43744002      10.26033084      -0.01430388       0.01012157       0.00272450      -7.21069619
O        8.65161353       6.63587340      10.24082041       0.00233335      -0.00120779       0.00686862      -7.21021180
