LAMMPS data file via write_data, version 2 Aug 2023, timestep = 25, units = metal

276 atoms
2 atom types

-0.17258970537125198 25.948389705371245 xlo xhi
-0.1494670685180512 22.47196467138498 ylo yhi
-0.0127365722742486 8.77513657227425 zlo zhi
-13.06048970448775 0 0 xy xz yz

Masses

1 24.32
2 65.39

Atoms # atomic

138 2 -0.9741230206012398 3.8758391141208746 2.1841238370764797 0 0 0
237 2 -0.9603282797402722 1.2149361653709814 2.1842317138628693 0 0 0
39 1 1.3482365604732194 2.486381125834116 3.816955104448846 0 0 0
48 1 1.3497086588436922 2.4855312094436934 0.5515083232768219 0 0 0
129 2 3.7141943647856888 1.1690378097431802 2.1843395906491856 0 0 0
174 2 3.643770035438302 3.818792724715546 2.1679682268916864 0 0 0
3 1 5.8692567565831295 -0.10840928811225792 3.9361820005890733 0 0 0
84 1 6.638111974555562 2.294157603452221 2.188135891773545 0 0 0
206 2 4.443211930627728 2.5323043116343773 4.378317424135305 0 0 0
23 1 9.831419688257744 2.1791465468569378 3.3615724753194947 0 0 0
118 1 8.891776910489208 0.46952195421079995 0.7195861897715197 0 0 0
180 2 9.07154025948492 3.4227503848827023 0.7358496767426476 0 0 0
183 2 11.359466080426033 2.1018157963359174 0.7033227028004131 0 0 0
220 2 12.873318675521869 2.0527230127963487 2.913671900043893 0 0 0
18 1 15.873266150208835 2.1380887664512644 2.4715364764977674 0 0 0
93 1 14.177009796548383 0.270957170198816 0.7234903676821942 0 0 0
144 2 13.689433315524454 3.365703995477377 0.7196940665578531 0 0 0
89 1 18.40949188341131 2.7145818421690326 0.7156820118607694 0 0 0
109 1 17.956143526301062 -0.14946706851803335 2.184231713862913 0 0 0
173 2 20.603596045106343 1.1714675200286107 2.1679682268917806 0 0 0
205 2 21.318006745016735 2.5070487166494644 4.378317424135247 0 0 0
268 2 18.697304923232586 2.372240172776146 3.648877237954279 0 0 0
272 2 25.948389705371227 -0.14946706851804498 8.775136572274246 -1 0 -1
128 2 22.863138950758724 2.557334235859428 2.1843395906492193 0 0 0
47 1 22.905265075517725 -0.1486171521276293 0.5515083232768725 0 1 0
12 1 -3.1579558552856226 5.103454343146988 0.43228142713656464 0 0 0
75 1 -1.4616995016251666 6.9705859393994345 2.1803275359521384 0 0 0
124 1 -4.168712794587538 8.00999920084514 3.6488772379543515 0 0 0
202 2 -0.15800838059865258 5.1888200968019005 -0.009853996409559172 0 0 0
105 1 1.1165200914716404 7.811434416833162 3.6527814158650265 0 0 0
110 1 3.823533384434007 6.77202115538745 2.1842317138628116 0 0 0
165 2 1.3558442144971874 5.1397273132623305 2.2004952008339176 0 0 0
264 2 1.2690901540260355 7.3910101781163435 0.7195861897714672 0 0 0
16 1 6.846053538343313 7.432067958522097 2.4715364764977013 0 0 0
90 1 6.077198320367658 4.94738550614603 0.7156820118607888 0 0 0
216 2 8.257517039732443 4.734494392948761 2.9194370517733432 0 0 0
269 2 5.636815217958843 4.869302936822194 3.6488772379542977 0 0 0
54 1 11.365601636079527 4.756011900154557 2.3523095803575123 0 0 0
59 1 9.84477537044098 7.39186009450671 3.480799371459703 0 0 0
142 2 9.001115930240678 8.70951505637745 0.7196940665578184 0 0 0
147 2 9.001115930137528 6.072505299855077 0.7194783129851468 0 0 0
246 2 11.312422851449657 7.391010178116312 0.7195861897714639 0 0 0
274 2 12.887900000294483 7.391010178116298 2.916554475908592 0 0 0
53 1 15.93102463014798 7.390160261725884 2.3523095803574616 0 0 0
58 1 14.40872626593304 4.755161983764143 3.4807993714597227 0 0 0
146 2 15.973150754906996 4.684208873738828 0.7194783129851116 0 0 0
244 2 13.675638574770119 8.755413412005415 0.7195861897714496 0 0 0
245 2 13.67563857466349 6.026606944227272 0.7195861897714646 0 0 0
22 1 18.92974646224565 7.349952397710502 3.3615724753194614 0 0 0
83 1 20.426797822254404 4.526961267429223 2.1881358917735656 0 0 0
120 1 20.880146179364637 7.391010178116289 0.7195861897714179 0 0 0
179 2 18.232693660559367 6.07007558956964 0.7358496767425498 0 0 0
182 2 18.232693660662505 8.711944766662924 0.7033227028002932 0 0 0
215 2 17.50370163608399 4.709238797963827 2.919437051773211 0 0 0
2 1 22.891909393741674 5.062396562741252 3.9361820005891386 0 0 0
102 1 -6.983291384709093 12.487862752780371 3.644973060043621 0 0 0
224 2 -4.788391340781263 12.249716044598221 1.4547915276818575 0 0 0
255 2 -5.981994628112375 9.912717419410397 2.184231713862864 0 0 0
25 1 -3.1579558551069686 9.678566013085552 1.0068909524063387 0 0 0
69 1 -1.6934159706267562 12.295639230398477 2.016153847368319 0 0 0
192 2 -3.9889494455918335 10.963227631517045 3.66514072492548 0 0 0
195 2 -1.7010236246507189 9.642293042970268 3.632613750983246 0 0 0
231 2 -0.1580083804266712 9.593200259430676 1.4490263759525401 0 0 0
32 1 2.883890606847293 9.719623793491344 1.8969269512280256 0 0 0
61 1 1.3497086592268133 12.29648914678891 0.8876640562660637 0 0 0
156 2 0.6289436104477015 10.906181242111712 3.6489851147406847 0 0 0
158 2 2.912661049830248 12.224686120373175 3.648769361167943 0 0 0
91 1 6.077198320558498 9.834634850086545 0.7234903676821717 0 0 0
101 1 5.349002178334556 10.255059088803375 3.6449730600435983 0 0 0
221 2 8.272098364504979 10.07278155826877 2.9136719000439553 0 0 0
223 2 4.457793255572231 12.274971639583136 1.4547915276819237 0 0 0
254 2 7.078495077356369 12.409780183456453 2.184231713862884 0 0 0
24 1 9.902533850380118 12.643931589781332 3.3615724753193956 0 0 0
52 1 11.367073734655925 10.026858372468455 2.352309580357442 0 0 0
178 2 11.359466080839224 12.680204559896714 0.7358496767425268 0 0 0
181 2 9.0715402597948 11.359269971349912 0.7033227028003187 0 0 0
214 2 12.902481325067093 12.729297343436247 2.9194370517732775 0 0 0
17 1 15.944380312331223 12.602873809375653 2.4715364764976675 0 0 0
60 1 14.410198364509439 10.026008456078037 3.4807993714596512 0 0 0
143 2 15.973150755118322 10.097811482493876 0.7196940665577737 0 0 0
145 2 13.689433315839096 11.416316360755083 0.719478312985066 0 0 0
92 1 18.409491883776635 12.067438514063522 0.7234903676821142 0 0 0
222 2 17.518282960856514 10.047525963283835 2.9136719000438287 0 0 0
33 1 -6.214436166736668 14.890429644344852 1.8969269512280913 0 0 0
103 1 -6.983291384518262 17.375112096720894 3.6527814158650047 0 0 0
229 2 -4.8029726651367755 17.588003209918142 1.4490263759524067 0 0 0
262 2 -7.423674486920911 17.45319466604483 0.7195861897714462 0 0 0
62 1 -3.2157143346358383 14.930637508360201 0.8876640562660815 0 0 0
67 1 -1.6948880687913617 17.566485702712363 2.0161538473682667 0 0 0
154 2 -4.059373774836083 16.249992303011787 3.648985114740649 0 0 0
159 2 -4.059373774939227 13.612982546489427 3.6487693611679797 0 0 0
252 2 -1.748066853627093 14.931487424750655 3.6488772379542977 0 0 0
275 2 -0.17258970478227348 14.931487424750642 1.4519089518171673 0 0 0
63 1 1.3482365610622082 17.5673356191028 0.8876640562660122 0 0 0
68 1 2.8705349250712855 14.932337341141086 2.01615384736825 0 0 0
155 2 2.912661050041569 17.638288729128224 3.648985114740604 0 0 0
250 2 0.615148869693361 16.29589065863975 3.6488772379542787 0 0 0
251 2 0.6151488695867271 13.567084190861623 3.6488772379542955 0 0 0
27 1 5.8692567571721295 14.97254520515643 1.0068909524062408 0 0 0
74 1 7.366308117401322 17.795536335437767 2.180327535952217 0 0 0
126 1 7.819656474287893 14.93148742475063 3.648877237954251 0 0 0
191 2 5.172203955482612 13.610552836203981 3.6651407249253847 0 0 0
194 2 5.172203955585748 16.25242201329727 3.632613750983128 0 0 0
230 2 4.4432119312167195 17.61325880490307 1.4490263759524726 0 0 0
1 1 9.902533850558774 17.2190432597199 3.9361820005891714 0 0 0
11 1 9.83141968884673 17.26010104012563 0.43228142713666307 0 0 0
82 1 11.59879020407343 15.351911663467503 2.188135891773623 0 0 0
119 1 8.89177691102994 14.3124984020216 0.7195861897714204 0 0 0
111 1 16.884023090148006 15.550476447479685 2.1842317138629133 -1 0 0
207 2 12.902481325239071 17.133677506065023 4.378317424135371 0 0 0
88 1 14.177009797104523 14.511063186033777 0.7156820118607109 0 0 0
172 2 14.416333920338731 17.18277028960457 2.1679682268918032 0 0 0
270 2 14.329579859691775 14.93148742475069 3.648877237954298 0 0 0
235 2 -11.657602261014201 22.471964671384978 2.184231713862871 0 -1 0
136 2 -9.346295339805211 21.153459793123833 2.1841238370765166 0 0 0
163 2 -9.416719669359347 18.50370487815137 2.2004952008340175 0 0 0
37 1 -11.710781045849938 19.836966393423268 3.8169551044488967 1 0 0
10 1 -7.191232947907853 22.430906890979195 0.43228142713663187 0 0 0
73 1 -6.422377730123046 20.028339999414747 2.18032753595216 0 0 0
203 2 -8.617277774069523 19.79019329123252 -0.009853996409623159 0 0 0
253 2 -1.6142695635905713 22.471964671384942 2.1842317138628644 0 -1 0
26 1 -3.229070016411835 20.143351056009944 1.0068909524063054 0 0 0
125 1 -4.1687127940468125 21.852975648655953 3.648877237954252 0 0 0
190 2 -1.7010236242375267 20.220681806531047 3.6651407249253607 0 0 0
193 2 -3.988949445281953 18.89974721798426 3.6326137509831495 0 0 0
225 2 -0.18717102913786715 20.269774590070607 1.4547915276817938 0 0 0
31 1 2.812776445542422 20.184408836415727 1.8969269512279954 0 0 0
100 1 1.1165200920277731 22.051540432668116 3.644973060043543 0 0 0
157 2 0.6289436107623365 18.956793607389425 3.6487693611679006 0 0 0
104 1 5.349002178699877 19.607915760697868 3.6527814158649483 0 0 0
164 2 7.543106340515441 21.151030082838364 2.200495200834037 0 0 0
204 2 8.257517040321432 19.815448886217453 -0.00985399640949487 0 0 0
263 2 5.636815218547837 19.950257430090886 0.7195861897714678 0 0 0
38 1 9.844775371029913 22.471114754994545 3.816955104448915 0 -1 0
127 2 12.086366685338852 18.446658488746202 2.184339590649266 0 0 0
137 2 9.802649246059632 19.765163367007418 2.184123837076561 0 0 0
236 2 12.100161426407839 21.107561437495875 2.184231713862885 0 0 0
46 1 14.408726266522027 19.836116477032828 0.5515083232768899 -1 0 0
40 1 -1.6934159710098213 2.4863811258341117 8.210891676723108 1 0 0
131 2 2.9126610494525855 2.557334235859529 6.57827616292344 0 0 0
133 2 0.6289436101733488 3.8758391141207387 6.5780604093507336 0 0 0
238 2 0.6151488691043631 1.2149361653710617 6.578168286137114 0 0 0
44 1 2.8705349244822913 -0.14861715212760157 4.945444895551086 0 1 0
86 1 7.366308116812333 2.714581842169072 5.109618584135047 0 0 0
170 2 5.172203954996757 1.1714675200285858 6.56190479916596 0 0 0
210 2 4.4577932551907775 2.50704871664949 8.772253996409487 0 0 0
267 2 7.078495076964376 2.372240172776055 8.042813810228532 0 0 0
13 1 9.902533849969782 2.1380887664512085 6.865473048772002 0 0 0
94 1 11.59879020348443 0.2709571701988178 5.117426939956455 0 0 0
139 2 12.086366684749873 3.3657039954775105 5.113630638832097 0 0 0
219 2 12.902481324650072 2.0527230127963327 7.307608472318204 0 0 0
20 1 15.944380311924036 2.1791465468569977 7.75550904759369 0 0 0
117 1 16.884023089559015 0.4695219542109909 5.113522762045747 0 0 0
175 2 16.70425974079416 3.4227503848826917 5.129786249016846 0 0 0
184 2 14.416333919749732 2.101815796335884 5.097259275074635 0 0 0
258 2 14.329579859102775 -0.149467068518001 6.57816828613713 0 0 0
4 1 19.906543243420057 -0.10840928811224493 8.330118572863364 0 0 0
79 1 19.137688025635246 2.2941576034522044 6.582072464047838 0 0 0
209 2 21.332588069581732 2.5323043116344266 8.772253996409615 0 0 0
43 1 24.42609134136215 2.4855312094436828 4.945444895551103 -1 0 0
271 2 25.94838970537123 -0.14946706851804423 4.381200000000002 -1 0 0
130 2 22.06160563531741 1.1690378097431158 6.578276162923484 0 0 0
169 2 22.13202996487155 3.8187927247155655 6.561904799165986 0 0 0
240 2 24.372912556526416 -0.14946706851802866 6.578168286137131 0 0 0
106 1 -1.4616995015923115 7.811434416833165 8.046717988139283 0 0 0
113 1 -4.168712794635802 6.7720211553872565 6.578168286137084 0 0 0
166 2 -1.701023624826517 5.139727313262367 6.594431773108194 0 0 0
259 2 -1.6142695641795644 7.391010178116253 5.113522762045698 0 0 0
201 2 -0.18717102972685684 5.188820096801919 4.384082575864627 0 0 0
5 1 2.883890606665477 5.06239656274131 8.330118572863332 0 0 0
7 1 2.812776444953437 5.103454343147041 4.8262179994108285 0 0 0
76 1 1.1165200914387803 6.9705859393994345 6.574264108226375 0 0 0
123 1 3.8235333844822716 8.009999200845337 8.042813810228573 0 0 0
21 1 6.8460535383400805 7.349952397710509 7.7555090475937565 0 0 0
80 1 5.349002178110885 4.526961267429177 6.582072464047782 0 0 0
115 1 4.895653821224318 7.39101017811631 5.113522762045744 0 0 0
176 2 7.5431063399264575 6.070075589569667 5.1297862490168695 0 0 0
185 2 7.543106340029608 8.71194476666296 5.097259275074613 0 0 0
212 2 8.27209836429549 4.7092387979638755 7.313373624047523 0 0 0
50 1 9.844775370440919 7.390160261725855 6.7462461526317465 0 0 0
57 1 11.36707373445 4.755161983764136 7.874735943733984 0 0 0
149 2 9.802649245470631 4.684208873738723 5.1134148852593935 0 0 0
242 2 12.100161425818856 6.026606944227195 5.113522762045718 0 0 0
243 2 12.100161425925489 8.755413412005307 5.113522762045702 0 0 0
273 2 12.887900000294483 7.391010178116298 7.310491048182821 0 0 0
49 1 14.410198364303568 4.7560119001545695 6.746246152631727 0 0 0
56 1 15.931024630148045 7.3918600945067405 7.874735943733912 0 0 0
141 2 16.774684070451443 8.709515056377532 5.113630638832015 0 0 0
148 2 16.7746840703483 6.072505299855135 5.1134148852593455 0 0 0
241 2 14.463377149139287 7.391010178116282 5.113522762045702 0 0 0
15 1 18.92974646224888 7.432067958522089 6.8654730487719045 0 0 0
85 1 19.698601680030468 4.947385506146053 5.109618584134991 0 0 0
211 2 17.51828296064898 4.73449439294879 7.3133736240475855 0 0 0
266 2 20.138984782433123 4.86930293682211 8.042813810228548 0 0 0
98 1 -5.694181588264422 10.255059088803417 8.038909632317878 0 0 0
228 2 -4.802972665344314 12.274971639583105 5.848728099956179 0 0 0
35 1 -3.229070016819007 9.719623793491284 6.290863523502327 0 0 0
66 1 -1.6948880689972274 12.296489146788902 5.281600628540344 0 0 0
151 2 -0.9741230203268817 10.90618124211185 8.04292168701493 0 0 0
161 2 -3.2578404596061206 12.224686120373065 8.042705933442226 0 0 0
232 2 -0.18717102955488063 9.593200259430695 5.842962948226724 0 0 0
30 1 2.812776445132094 9.678566013085609 5.400827524680601 0 0 0
70 1 1.348236560856283 12.295639230398486 6.4100904196425565 0 0 0
187 2 3.6437700357174094 10.963227631517029 8.059077297199678 0 0 0
196 2 1.3558442146729845 9.642293042970229 8.026550323257469 0 0 0
95 1 7.366308117177655 12.067438514063564 5.117426939956398 0 0 0
97 1 6.638111974953714 12.487862752780394 8.038909632317823 0 0 0
217 2 8.257517039939984 10.047525963283801 7.307608472318073 0 0 0
227 2 4.443211931007233 12.249716044598173 5.84872809995604 0 0 0
256 2 5.636815218155841 9.91271741941049 6.578168286137114 0 0 0
14 1 9.83141968866492 12.602873809375597 6.865473048771969 0 0 0
55 1 11.365601636285398 10.026008456078028 7.874735943733932 0 0 0
140 2 9.802649245681952 10.097811482493764 5.113630638832052 0 0 0
150 2 12.086366685064519 11.416316360755232 5.113414885259311 0 0 0
213 2 12.873318675938888 12.72929734343626 7.3133736240474505 0 0 0
19 1 15.873266150619173 12.643931589781388 7.755509047593658 0 0 0
51 1 14.408726266138965 10.026858372468464 6.746246152631678 0 0 0
177 2 14.416333920162916 12.680204559896671 5.129786249016749 0 0 0
186 2 16.70425974110405 11.359269971349883 5.097259275074514 0 0 0
96 1 19.698601680221305 9.834634850086566 5.117426939956378 0 0 0
218 2 17.503701636293478 10.072781558268723 7.307608472318129 0 0 0
257 2 18.697304923624586 12.409780183456544 6.578168286137129 -1 0 0
8 1 -10.176599098229465 17.26010104012569 4.826217999410857 0 0 0
28 1 -6.214436166733443 14.972545205156443 5.400827524680537 0 0 0
77 1 -7.7114875267422 17.795536335437713 6.574264108226431 0 0 0
121 1 -8.164835883852431 14.931487424750653 8.042813810228573 0 0 0
188 2 -5.517383365150292 13.61055283620401 8.0590772971997 0 0 0
197 2 -5.517383365047158 16.252422013297302 8.026550323257444 0 0 0
233 2 -4.788391340571781 17.613258804903108 5.842962948226788 0 0 0
64 1 -1.693415970420831 17.5673356191028 5.281600628540275 0 0 0
71 1 -3.2157143346357753 14.932337341141055 6.410090419642536 0 0 0
152 2 -3.257840459394792 17.638288729128114 8.042921687014884 0 0 0
248 2 -0.9603282792579055 13.567084190861527 8.042813810228544 0 0 0
249 2 -0.9603282791512734 16.295890658639657 8.042813810228528 0 0 0
276 2 -0.1725897047822717 14.931487424750637 5.8458455240914144 0 0 0
65 1 2.870534925071222 14.930637508360231 5.281600628540295 0 0 0
72 1 1.3497086594326841 17.56648570271238 6.4100904196424855 0 0 0
153 2 3.7141943653746847 16.24999230301186 8.042921687014845 0 0 0
160 2 3.7141943652715375 13.612982546489492 8.042705933442177 0 0 0
247 2 1.402887444062548 14.931487424750623 8.042813810228528 0 0 0
34 1 5.869256757168891 14.890429644344842 6.290863523502295 0 0 0
108 1 6.638111975144551 17.375112096720912 8.046717988139207 0 0 0
234 2 4.457793255779769 17.58800320991818 5.842962948226657 0 0 0
261 2 7.078495077553362 17.45319466604475 5.113522762045699 0 0 0
87 1 11.598790204040577 14.511063186033775 5.109618584134968 0 0 0
112 1 8.891776911078203 15.550476447479486 6.578168286137184 0 0 0
171 2 11.359466081015023 17.182770289604612 6.561904799166078 0 0 0
265 2 11.446220141486176 14.931487424750598 8.042813810228532 0 0 0
208 2 12.873318676110861 17.13367750606504 8.772253996409553 0 0 0
6 1 15.873266150797829 17.219043259719953 8.330118572863434 0 0 0
81 1 14.177009797137377 15.351911663467504 6.582072464047859 0 0 0
116 1 16.884023090099756 14.3124984020218 5.113522762045643 0 0 0
41 1 -10.189954780005518 22.47111475499458 8.210891676723127 0 -1 0
134 2 -10.1478286552465 19.765163367007514 6.578060409350778 0 0 0
114 1 -5.240833230788855 22.471964671384967 6.578168286137087 0 -1 0
107 1 -5.694181587899103 19.60791576069791 8.046717988139227 0 0 0
167 2 -7.88828574959414 21.15103008283832 6.5944317731082185 0 0 0
199 2 -8.602696449504522 19.815448886217485 4.384082575864757 0 0 0
260 2 -5.981994627720386 19.950257430090794 5.113522762045718 0 0 0
36 1 -3.1579558546966293 20.184408836415674 6.290863523502229 0 0 0
99 1 -1.461699501036172 22.051540432668123 8.038909632317804 0 0 0
162 2 -0.9741230200122455 18.956793607389564 8.042705933442143 0 0 0
226 2 -0.1580083800096636 20.269774590070593 5.848728099956108 0 0 0
29 1 2.883890607254463 20.143351056009998 5.400827524680503 0 0 0
122 1 3.8235333850229996 21.852975648656134 8.042813810228477 0 0 0
189 2 1.3558442150861718 20.22068180653101 8.059077297199584 0 0 0
198 2 3.643770036027294 18.899747217984235 8.02655032325735 0 0 0
9 1 6.846053538929079 22.430906890979205 4.8262179994109236 0 0 0
78 1 6.0771983209566445 20.028339999414722 6.574264108226451 0 0 0
200 2 8.27209836488448 19.790193291232562 4.384082575864701 0 0 0
42 1 11.365601636668515 19.83696639342325 8.210891676723175 0 0 0
45 1 11.36707373503899 19.836116477032828 4.945444895551154 0 0 0
135 2 9.001115930726515 21.153459793123762 6.578060409350813 0 0 0
168 2 9.071540260073906 18.503704878151407 6.594431773108312 0 0 0
132 2 13.689433316113439 18.44665848874607 6.57827616292352 0 0 0
239 2 13.675638575252476 21.107561437495967 6.578168286137129 -1 0 0

Velocities

138 0 0 0
237 0 0 0
39 0 0 0
48 0 0 0
129 0 0 0
174 0 0 0
3 0 0 0
84 0 0 0
206 0 0 0
23 0 0 0
118 0 0 0
180 0 0 0
183 0 0 0
220 0 0 0
18 0 0 0
93 0 0 0
144 0 0 0
89 0 0 0
109 0 0 0
173 0 0 0
205 0 0 0
268 0 0 0
272 0 0 0
128 0 0 0
47 0 0 0
12 0 0 0
75 0 0 0
124 0 0 0
202 0 0 0
105 0 0 0
110 0 0 0
165 0 0 0
264 0 0 0
16 0 0 0
90 0 0 0
216 0 0 0
269 0 0 0
54 0 0 0
59 0 0 0
142 0 0 0
147 0 0 0
246 0 0 0
274 0 0 0
53 0 0 0
58 0 0 0
146 0 0 0
244 0 0 0
245 0 0 0
22 0 0 0
83 0 0 0
120 0 0 0
179 0 0 0
182 0 0 0
215 0 0 0
2 0 0 0
102 0 0 0
224 0 0 0
255 0 0 0
25 0 0 0
69 0 0 0
192 0 0 0
195 0 0 0
231 0 0 0
32 0 0 0
61 0 0 0
156 0 0 0
158 0 0 0
91 0 0 0
101 0 0 0
221 0 0 0
223 0 0 0
254 0 0 0
24 0 0 0
52 0 0 0
178 0 0 0
181 0 0 0
214 0 0 0
17 0 0 0
60 0 0 0
143 0 0 0
145 0 0 0
92 0 0 0
222 0 0 0
33 0 0 0
103 0 0 0
229 0 0 0
262 0 0 0
62 0 0 0
67 0 0 0
154 0 0 0
159 0 0 0
252 0 0 0
275 0 0 0
63 0 0 0
68 0 0 0
155 0 0 0
250 0 0 0
251 0 0 0
27 0 0 0
74 0 0 0
126 0 0 0
191 0 0 0
194 0 0 0
230 0 0 0
1 0 0 0
11 0 0 0
82 0 0 0
119 0 0 0
111 0 0 0
207 0 0 0
88 0 0 0
172 0 0 0
270 0 0 0
235 0 0 0
136 0 0 0
163 0 0 0
37 0 0 0
10 0 0 0
73 0 0 0
203 0 0 0
253 0 0 0
26 0 0 0
125 0 0 0
190 0 0 0
193 0 0 0
225 0 0 0
31 0 0 0
100 0 0 0
157 0 0 0
104 0 0 0
164 0 0 0
204 0 0 0
263 0 0 0
38 0 0 0
127 0 0 0
137 0 0 0
236 0 0 0
46 0 0 0
40 0 0 0
131 0 0 0
133 0 0 0
238 0 0 0
44 0 0 0
86 0 0 0
170 0 0 0
210 0 0 0
267 0 0 0
13 0 0 0
94 0 0 0
139 0 0 0
219 0 0 0
20 0 0 0
117 0 0 0
175 0 0 0
184 0 0 0
258 0 0 0
4 0 0 0
79 0 0 0
209 0 0 0
43 0 0 0
271 0 0 0
130 0 0 0
169 0 0 0
240 0 0 0
106 0 0 0
113 0 0 0
166 0 0 0
259 0 0 0
201 0 0 0
5 0 0 0
7 0 0 0
76 0 0 0
123 0 0 0
21 0 0 0
80 0 0 0
115 0 0 0
176 0 0 0
185 0 0 0
212 0 0 0
50 0 0 0
57 0 0 0
149 0 0 0
242 0 0 0
243 0 0 0
273 0 0 0
49 0 0 0
56 0 0 0
141 0 0 0
148 0 0 0
241 0 0 0
15 0 0 0
85 0 0 0
211 0 0 0
266 0 0 0
98 0 0 0
228 0 0 0
35 0 0 0
66 0 0 0
151 0 0 0
161 0 0 0
232 0 0 0
30 0 0 0
70 0 0 0
187 0 0 0
196 0 0 0
95 0 0 0
97 0 0 0
217 0 0 0
227 0 0 0
256 0 0 0
14 0 0 0
55 0 0 0
140 0 0 0
150 0 0 0
213 0 0 0
19 0 0 0
51 0 0 0
177 0 0 0
186 0 0 0
96 0 0 0
218 0 0 0
257 0 0 0
8 0 0 0
28 0 0 0
77 0 0 0
121 0 0 0
188 0 0 0
197 0 0 0
233 0 0 0
64 0 0 0
71 0 0 0
152 0 0 0
248 0 0 0
249 0 0 0
276 0 0 0
65 0 0 0
72 0 0 0
153 0 0 0
160 0 0 0
247 0 0 0
34 0 0 0
108 0 0 0
234 0 0 0
261 0 0 0
87 0 0 0
112 0 0 0
171 0 0 0
265 0 0 0
208 0 0 0
6 0 0 0
81 0 0 0
116 0 0 0
41 0 0 0
134 0 0 0
114 0 0 0
107 0 0 0
167 0 0 0
199 0 0 0
260 0 0 0
36 0 0 0
99 0 0 0
162 0 0 0
226 0 0 0
29 0 0 0
122 0 0 0
189 0 0 0
198 0 0 0
9 0 0 0
78 0 0 0
200 0 0 0
42 0 0 0
45 0 0 0
135 0 0 0
168 0 0 0
132 0 0 0
239 0 0 0
