LAMMPS data file via write_data, version 2 Aug 2023, timestep = 4, units = metal

12 atoms
2 atom types

0 5.223 xlo xhi
0 4.523250683966123 ylo yhi
0 8.566 zlo zhi
-2.6114999999999986 0 0 xy xz yz

Masses

1 65.39
2 24.32

Atoms # atomic

1 1 5.635123698533948e-16 3.015489065166272 3.749273970953091 0 0 0
4 1 2.7357762697253514e-16 3.015489065166272 0.5337260290469094 0 0 0
6 2 5.222999999999999 2.8715920521215893e-16 3.457434576843913e-16 -1 0 0
7 2 3.874050797310614 0.7787034706436274 2.1414999999999997 0 0 0
8 2 2.6115 2.965566510650623 2.1414999999999997 0 0 0
9 2 1.3489492026893848 0.7787034706436283 2.1414999999999997 0 0 0
2 1 2.6115 1.5077616187998515 4.81672602904691 0 0 0
3 1 2.6114999999999995 1.5077616187998513 8.032273970953092 0 0 0
5 2 -1.5734705148712732e-16 2.7253308759686073e-16 4.2829999999999995 0 0 0
10 2 -1.2625507973106138 3.7445472133224955 6.4245 0 0 0
11 2 8.590762969810983e-16 1.5576841733154998 6.4245 0 0 0
12 2 1.2625507973106151 3.7445472133224946 6.4245 0 0 0

Velocities

1 0 0 0
4 0 0 0
6 0 0 0
7 0 0 0
8 0 0 0
9 0 0 0
2 0 0 0
3 0 0 0
5 0 0 0
10 0 0 0
11 0 0 0
12 0 0 0
