LAMMPS data file via write_data, version 2 Aug 2023, timestep = 134, units = metal

9 atoms
2 atom types

-0.2509045447141432 4.89290454471417 xlo xhi
-0.21728970964741734 4.237379634014773 ylo yhi
-0.35289870151629626 6.88189870151632 zlo zhi
-2.571904544714138 0 0 xy xz yz

Masses

1 24.32
2 65.39

Atoms # atomic

1 2 -0.2509045447141427 1.1836843291846482 6.881898701516318 0 0 -1
2 2 1.107720892328963 3.5368926145987345 4.470299567172115 0 0 0
3 2 -1.6095299817572235 3.5368926145987323 2.058700432827913 0 0 0
4 2 2.3210000000000317 2.8364055951827094 6.881898701516319 0 0 -1
5 2 0.9623745629569285 0.48319730976862474 4.470299567172115 0 0 0
6 2 3.6796254370431134 0.4831973097686262 2.058700432827913 0 0 0
7 1 2.321000000000014 -0.21728970964741734 -0.3528987015162882 0 0 0
8 1 -1.5368568170712105 2.010044962183679 4.470299567172118 0 0 0
9 1 1.0350477276429455 2.010044962183679 2.058700432827897 0 0 0

Velocities

1 0 0 0
2 0 0 0
3 0 0 0
4 0 0 0
5 0 0 0
6 0 0 0
7 0 0 0
8 0 0 0
9 0 0 0
