#

312 atoms
2 atom types

0.0 17.426645061535197 xlo xhi
0.0 17.42664177466661 ylo yhi
0.0 17.426648823653696 zlo zhi

1.0670740534616507e-15 1.0670744850876243e-15 1.9347466766077233e-15 xy xz yz


Atom Type Labels

1 H
2 He


Atoms

1 H 17.352119576474553 4.353013703933996 2.5806240964013547
2 H 8.638797045706955 4.353013703933996 2.5806240964013547
3 H 17.352119576474553 13.066334591267303 2.5806240964013547
4 H 8.638797045706955 13.066334591267303 2.5806240964013547
5 H 17.352119576474553 4.353013703933997 11.293948508228203
6 H 8.638797045706955 4.353013703933997 11.293948508228203
7 H 17.352119576474553 13.066334591267305 11.293948508228203
8 H 8.638797045706955 13.066334591267305 11.293948508228203
9 He 0.024182471492925416 1.9010621184793275 8.549398256119723
10 He 8.737505002260523 1.9010621184793275 8.549398256119723
11 He 0.024182471492925947 10.614383005812634 8.549398256119723
12 He 8.737505002260523 10.614383005812634 8.549398256119723
13 He 0.02418247149292595 1.9010621184793286 17.26272266794657
14 He 8.737505002260525 1.9010621184793286 17.26272266794657
15 He 0.02418247149292648 10.614383005812634 17.26272266794657
16 He 8.737505002260525 10.614383005812634 17.26272266794657
17 He 0.0052181739877209124 0.021582610757044502 1.9010611026928905
18 He 8.71854070475532 0.021582610757044502 1.9010611026928905
19 He 0.005218173987721446 8.73490349809035 1.9010611026928905
20 He 8.71854070475532 8.73490349809035 1.9010611026928905
21 He 0.005218173987721446 0.02158261075704547 10.61438551451974
22 He 8.71854070475532 0.02158261075704547 10.61438551451974
23 He 0.005218173987721979 8.734903498090352 10.61438551451974
24 He 8.71854070475532 8.734903498090352 10.61438551451974
25 He 1.9036593833587205 8.549397048639001 8.53042232416669
26 He 10.616981914126319 8.549397048639001 8.53042232416669
27 He 1.9036593833587212 17.262717935972304 8.53042232416669
28 He 10.61698191412632 17.262717935972304 8.53042232416669
29 He 1.9036593833587212 8.549397048639001 17.24374673599354
30 He 10.61698191412632 8.549397048639001 17.24374673599354
31 He 1.9036593833587219 17.262717935972308 17.24374673599354
32 He 10.616981914126322 17.262717935972308 17.24374673599354
33 He 1.2999447972734237 4.372093069460224 17.367544749221047
34 He 10.013267328041023 4.372093069460224 17.367544749221047
35 He 1.2999447972734244 13.085413956793529 17.367544749221047
36 He 10.013267328041023 13.085413956793529 17.367544749221047
37 He 1.299944797273423 4.372093069460223 8.654220337394197
38 He 10.013267328041021 4.372093069460223 8.654220337394197
39 He 1.2999447972734237 13.085413956793529 8.654220337394197
40 He 10.013267328041021 13.085413956793529 8.654220337394197
41 He 1.995092568221348 1.8090455750417707 1.6623493688875868
42 He 10.708415098988946 1.8090455750417707 1.6623493688875868
43 He 1.9950925682213487 10.522366462375075 1.6623493688875868
44 He 10.708415098988946 10.522366462375075 1.6623493688875868
45 He 1.9950925682213487 1.8090455750417715 10.375673780714436
46 He 10.708415098988946 1.8090455750417715 10.375673780714436
47 He 1.9950925682213494 10.522366462375077 10.375673780714436
48 He 10.708415098988946 10.522366462375077 10.375673780714436
49 He 2.942393847567372 4.283588454496631 2.0015201973899392
50 He 11.655716378334969 4.283588454496631 2.0015201973899392
51 He 2.9423938475673723 12.996909341829936 2.0015201973899392
52 He 11.655716378334969 12.996909341829936 2.0015201973899392
53 He 2.9423938475673723 4.283588454496632 10.714844609216787
54 He 11.655716378334969 4.283588454496632 10.714844609216787
55 He 2.9423938475673728 12.996909341829937 10.714844609216787
56 He 11.655716378334969 12.996909341829937 10.714844609216787
57 H 4.355617124748826 2.580621068009464 8.629134784421733
58 H 13.068939655516424 2.580621068009464 8.629134784421733
59 H 4.355617124748827 11.29394195534277 8.629134784421733
60 H 13.068939655516424 11.29394195534277 8.629134784421733
61 H 4.355617124748826 2.580621068009465 17.342459196248583
62 H 13.068939655516425 2.580621068009465 17.342459196248583
63 H 4.355617124748827 11.29394195534277 17.342459196248583
64 H 13.068939655516425 11.29394195534277 17.342459196248583
65 He 6.653568054863515 0.00260685715477188 0.021577828791270504
66 He 15.366890585631115 0.00260685715477188 0.021577828791270504
67 He 6.653568054863516 8.715927744488075 0.021577828791270504
68 He 15.366890585631115 8.715927744488075 0.021577828791270504
69 He 6.653568054863516 0.002606857154772847 8.73490224061812
70 He 15.366890585631115 0.002606857154772847 8.73490224061812
71 He 6.653568054863517 8.715927744488077 8.73490224061812
72 He 15.366890585631115 8.715927744488077 8.73490224061812
73 He 4.182525378614211 8.611092914820007 1.297325922031942
74 He 12.89584790938181 8.611092914820007 1.297325922031942
75 He 4.182525378614211 17.324413802153313 1.297325922031942
76 He 12.895847909381812 17.324413802153313 1.297325922031942
77 He 4.182525378614212 8.61109291482001 10.010650333858791
78 He 12.89584790938181 8.61109291482001 10.010650333858791
79 He 4.182525378614212 17.324413802153313 10.010650333858791
80 He 12.895847909381812 17.324413802153313 10.010650333858791
81 He 7.257278959574909 4.179945782156547 8.611090227519849
82 He 15.970601490342506 4.179945782156547 8.611090227519849
83 He 7.25727895957491 12.893266669489853 8.611090227519849
84 He 15.970601490342506 12.893266669489853 8.611090227519849
85 He 7.257278959574909 4.1799457821565476 17.3244146393467
86 He 15.970601490342508 4.1799457821565476 17.3244146393467
87 He 7.25727895957491 12.893266669489853 17.3244146393467
88 He 15.970601490342508 12.893266669489853 17.3244146393467
89 He 6.892253581497969 1.9924792307090398 1.809041728720962
90 He 15.605576112265569 1.9924792307090398 1.809041728720962
91 He 6.89225358149797 10.705800118042344 1.809041728720962
92 He 15.605576112265569 10.705800118042344 1.809041728720962
93 He 6.89225358149797 1.9924792307090406 10.52236614054781
94 He 15.605576112265569 1.9924792307090406 10.52236614054781
95 He 6.892253581497971 10.705800118042346 10.52236614054781
96 He 15.605576112265569 10.705800118042346 10.52236614054781
97 He 5.684383702641336 4.385036960072061 2.017077253791165
98 He 14.397706233408934 4.385036960072061 2.017077253791165
99 He 5.684383702641337 13.098357847405367 2.017077253791165
100 He 14.397706233408934 13.098357847405367 2.017077253791165
101 He 5.684383702641337 4.385036960072062 10.730401665618013
102 He 14.397706233408934 4.385036960072062 10.730401665618013
103 He 5.6843837026413375 13.098357847405369 10.730401665618013
104 He 14.397706233408934 13.098357847405369 10.730401665618013
105 He 4.387651610054081 2.0170782915697747 2.870223383825217
106 He 13.10097414082168 2.0170782915697747 2.870223383825217
107 He 4.387651610054082 10.73039917890308 2.870223383825217
108 He 13.10097414082168 10.73039917890308 2.870223383825217
109 He 4.387651610054082 2.0170782915697756 11.583547795652066
110 He 13.10097414082168 2.0170782915697756 11.583547795652066
111 He 4.387651610054083 10.730399178903081 11.583547795652066
112 He 13.10097414082168 10.730399178903081 11.583547795652066
113 He 8.53304991243213 6.6509670894649 0.0026141795406141046
114 He 17.24637244319973 6.6509670894649 0.0026141795406141046
115 He 8.533049912432132 15.364287976798204 0.0026141795406141046
116 He 17.24637244319973 15.364287976798204 0.0026141795406141046
117 He 8.53304991243213 6.650967089464901 8.715938591367461
118 He 17.24637244319973 6.650967089464901 8.715938591367461
119 He 8.533049912432132 15.364287976798206 8.715938591367461
120 He 17.24637244319973 15.364287976798206 8.715938591367461
121 He 1.8139622320505713 6.740669156443936 1.8113465283234433
122 He 10.52728476281817 6.740669156443936 1.8113465283234433
123 He 1.8139622320505717 15.45399004377724 1.8113465283234433
124 He 10.527284762818171 15.45399004377724 1.8113465283234433
125 He 1.813962232050572 6.7406691564439365 10.524670940150292
126 He 10.52728476281817 6.7406691564439365 10.524670940150292
127 He 1.8139622320505724 15.453990043777242 10.524670940150292
128 He 10.527284762818171 15.453990043777242 10.524670940150292
129 H 4.201601220640359 5.971369507544702 17.349507386764664
130 H 12.91492375140796 5.971369507544702 17.349507386764664
131 H 4.2016012206403595 14.68469039487801 17.349507386764664
132 H 12.914923751407962 14.68469039487801 17.349507386764664
133 H 4.201601220640359 5.9713695075447015 8.636182974937816
134 H 12.914923751407958 5.9713695075447015 8.636182974937816
135 H 4.2016012206403595 14.68469039487801 8.636182974937816
136 H 12.91492375140796 14.68469039487801 8.636182974937816
137 He 6.7455719107145775 6.889638740761219 1.9924742756622795
138 He 15.458894441482176 6.889638740761219 1.9924742756622795
139 He 6.745571910714578 15.602959628094524 1.9924742756622795
140 He 15.458894441482178 15.602959628094524 1.9924742756622795
141 He 6.745571910714578 6.88963874076122 10.705798687489128
142 He 15.458894441482176 6.88963874076122 10.705798687489128
143 He 6.745571910714579 15.602959628094526 10.705798687489128
144 He 15.458894441482178 15.602959628094526 10.705798687489128
145 He 4.271029909235793 6.550470554374029 2.9397817572595346
146 He 12.984352440003391 6.550470554374029 2.9397817572595346
147 He 4.271029909235794 15.263791441707335 2.9397817572595346
148 He 12.984352440003393 15.263791441707335 2.9397817572595346
149 He 4.271029909235794 6.55047055437403 11.653106169086383
150 He 12.984352440003391 6.55047055437403 11.653106169086383
151 He 4.271029909235795 15.263791441707337 11.653106169086383
152 He 12.984352440003393 15.263791441707337 11.653106169086383
153 H 2.583240988862307 8.629136999208821 4.19899376159557
154 H 11.296563519629904 8.629136999208821 4.19899376159557
155 H 2.5832409888623076 17.342457886542125 4.19899376159557
156 H 11.296563519629906 17.342457886542125 4.19899376159557
157 H 2.5832409888623076 8.629136999208823 12.912318173422419
158 H 11.296563519629904 8.629136999208823 12.912318173422419
159 H 2.583240988862308 17.342457886542125 12.912318173422419
160 H 11.296563519629906 17.342457886542125 12.912318173422419
161 He 8.552000535825115 8.530428529089008 6.650967754534412
162 He 17.265323066592714 8.530428529089008 6.650967754534412
163 He 8.552000535825117 17.243749416422315 6.650967754534412
164 He 17.265323066592714 17.243749416422315 6.650967754534412
165 He 8.552000535825117 8.53042852908901 15.364292166361261
166 He 17.265323066592714 8.53042852908901 15.364292166361261
167 He 8.552000535825119 17.243749416422315 15.364292166361261
168 He 17.265323066592714 17.243749416422315 15.364292166361261
169 He 8.613708459220094 1.2973288143827453 4.372105220484974
170 He 17.32703098998769 1.2973288143827453 4.372105220484974
171 He 8.613708459220094 10.01064970171605 4.372105220484974
172 He 17.32703098998769 10.01064970171605 4.372105220484974
173 He 8.613708459220094 1.2973288143827464 13.085429632311822
174 He 17.32703098998769 1.2973288143827464 13.085429632311822
175 He 8.613708459220094 10.010649701716051 13.085429632311822
176 He 17.32703098998769 10.010649701716051 13.085429632311822
177 He 4.374705680267357 17.367534723863486 7.254668898960101
178 He 13.088028211034954 17.367534723863486 7.254668898960101
179 He 4.374705680267357 8.65421383653018 7.254668898960101
180 He 13.088028211034953 8.65421383653018 7.254668898960101
181 He 4.374705680267357 17.367534723863486 15.967993310786948
182 He 13.088028211034956 17.367534723863486 15.967993310786948
183 He 4.374705680267357 8.654213836530182 15.967993310786948
184 He 13.088028211034954 8.654213836530182 15.967993310786948
185 He 1.8116520880548797 1.6623645043048658 6.559528684141629
186 He 10.524974618822478 1.6623645043048658 6.559528684141629
187 He 1.8116520880548803 10.375685391638171 6.559528684141629
188 He 10.524974618822478 10.375685391638171 6.559528684141629
189 He 1.81165208805488 1.662364504304867 15.272853095968479
190 He 10.52497461882248 1.662364504304867 15.272853095968479
191 He 1.8116520880548808 10.375685391638173 15.272853095968479
192 He 10.52497461882248 10.375685391638173 15.272853095968479
193 He 2.019694201748416 2.8702190033646056 4.166956620138434
194 He 10.733016732516015 2.8702190033646056 4.166956620138434
195 He 2.019694201748417 11.58353989069791 4.166956620138434
196 He 10.733016732516015 11.58353989069791 4.166956620138434
197 He 2.0196942017484165 2.8702190033646064 12.880281031965282
198 He 10.733016732516015 2.8702190033646064 12.880281031965282
199 He 2.0196942017484174 11.583539890697912 12.880281031965282
200 He 10.733016732516015 11.583539890697912 12.880281031965282
201 He 4.286195215608356 2.001520959900229 5.612217166565625
202 He 12.999517746375954 2.001520959900229 5.612217166565625
203 He 4.286195215608357 10.714841847233533 5.612217166565625
204 He 12.999517746375954 10.714841847233533 5.612217166565625
205 He 4.286195215608357 2.00152095990023 14.325541578392473
206 He 12.999517746375954 2.00152095990023 14.325541578392473
207 He 4.286195215608358 10.714841847233535 14.325541578392473
208 He 12.999517746375954 10.714841847233535 14.325541578392473
209 H 5.973986104677474 17.34949721664716 4.353008530671027
210 H 14.687308635445072 17.34949721664716 4.353008530671027
211 H 5.973986104677474 8.636176329313855 4.353008530671027
212 H 14.68730863544507 8.636176329313855 4.353008530671027
213 H 5.973986104677475 17.34949721664716 13.066332942497874
214 H 14.687308635445072 17.34949721664716 13.066332942497874
215 H 5.973986104677475 8.636176329313857 13.066332942497874
216 H 14.68730863544507 8.636176329313857 13.066332942497874
217 He 6.7432667853189345 1.8113396739018208 6.740658336320019
218 He 15.456589316086532 1.8113396739018208 6.740658336320019
219 He 6.743266785318935 10.524660561235125 6.740658336320019
220 He 15.456589316086532 10.524660561235125 6.740658336320019
221 He 6.743266785318935 1.811339673901822 15.453982748146867
222 He 15.456589316086534 1.811339673901822 15.453982748146867
223 He 6.743266785318936 10.524660561235127 15.453982748146867
224 He 15.456589316086534 10.524660561235127 15.453982748146867
225 He 6.553083173400324 2.9397770004668526 4.283584906219733
226 He 15.266405704167923 2.9397770004668526 4.283584906219733
227 He 6.553083173400325 11.653097887800158 4.283584906219733
228 He 15.266405704167923 11.653097887800158 4.283584906219733
229 He 6.553083173400325 2.9397770004668535 12.996909318046582
230 He 15.266405704167923 2.9397770004668535 12.996909318046582
231 He 6.553083173400326 11.65309788780016 12.996909318046582
232 He 15.266405704167923 11.65309788780016 12.996909318046582
233 H 8.631748910580384 4.198989149269658 5.971366440146667
234 H 17.345071441347983 4.198989149269658 5.971366440146667
235 H 8.631748910580384 12.91231003660296 5.971366440146667
236 H 17.345071441347983 12.91231003660296 5.971366440146667
237 H 8.631748910580386 4.198989149269659 14.684690851973517
238 H 17.345071441347983 4.198989149269659 14.684690851973517
239 H 8.631748910580386 12.912310036602962 14.684690851973517
240 H 17.345071441347983 12.912310036602962 14.684690851973517
241 He 4.278611809280572 4.275993269517505 4.275995700623444
242 He 12.99193434004817 4.275993269517505 4.275995700623444
243 He 4.278611809280573 12.989314156850808 4.275995700623444
244 He 12.99193434004817 12.989314156850808 4.275995700623444
245 He 4.278611809280573 4.275993269517506 12.98932011245029
246 He 12.99193434004817 4.275993269517506 12.98932011245029
247 He 4.278611809280574 12.98931415685081 12.98932011245029
248 He 12.99193434004817 12.98931415685081 12.98932011245029
249 He 17.37016333208241 7.254663664422001 4.179935200817001
250 He 8.65684080131481 7.254663664422001 4.179935200817001
251 He 17.37016333208241 15.967984551755304 4.179935200817001
252 He 8.656840801314813 15.967984551755304 4.179935200817001
253 He 17.37016333208241 7.254663664422002 12.893259612643849
254 He 8.65684080131481 7.254663664422002 12.893259612643849
255 He 17.37016333208241 15.967984551755306 12.893259612643849
256 He 8.656840801314813 15.967984551755306 12.893259612643849
257 He 1.6649634243666385 6.559532437071939 6.7429394175978725
258 He 10.378285955134237 6.559532437071939 6.7429394175978725
259 He 1.664963424366639 15.272853324405242 6.7429394175978725
260 He 10.378285955134238 15.272853324405242 6.7429394175978725
261 He 1.664963424366639 6.5595324370719394 15.456263829424723
262 He 10.378285955134238 6.5595324370719394 15.456263829424723
263 He 1.6649634243666394 15.272853324405244 15.456263829424723
264 He 10.37828595513424 15.272853324405244 15.456263829424723
265 He 2.8728360085931843 4.166964234287546 6.534912059534271
266 He 11.586158539360783 4.166964234287546 6.534912059534271
267 He 2.8728360085931848 12.880285121620851 6.534912059534271
268 He 11.586158539360783 12.880285121620851 6.534912059534271
269 He 2.8728360085931848 4.166964234287547 15.24823647136112
270 He 11.586158539360785 4.166964234287547 15.24823647136112
271 He 2.872836008593185 12.880285121620853 15.24823647136112
272 He 11.586158539360785 12.880285121620853 15.24823647136112
273 He 2.004144055990616 5.612212754237262 4.268405593135102
274 He 10.717466586758214 5.612212754237262 4.268405593135102
275 He 2.0041440559906163 14.325533641570567 4.268405593135102
276 He 10.717466586758214 14.325533641570567 4.268405593135102
277 He 2.0041440559906163 5.612212754237263 12.98173000496195
278 He 10.717466586758214 5.612212754237263 12.98173000496195
279 He 2.0041440559906167 14.32553364157057 12.98173000496195
280 He 10.717466586758214 14.32553364157057 12.98173000496195
281 He 4.169578678472 6.5349106003207265 5.681771639827089
282 He 12.882901209239598 6.5349106003207265 5.681771639827089
283 He 4.169578678472001 15.248231487654031 5.681771639827089
284 He 12.8829012092396 15.248231487654031 5.681771639827089
285 He 4.169578678472001 6.534910600320727 14.395096051653939
286 He 12.882901209239598 6.534910600320727 14.395096051653939
287 He 4.169578678472002 15.248231487654033 14.395096051653939
288 He 12.8829012092396 15.248231487654033 14.395096051653939
289 He 6.562142516376217 6.74293702438789 6.88965884692139
290 He 15.275465047143815 6.74293702438789 6.88965884692139
291 He 6.562142516376218 15.456257911721195 6.88965884692139
292 He 15.275465047143816 15.456257911721195 6.88965884692139
293 He 6.562142516376218 6.742937024387891 15.602983258748239
294 He 15.275465047143816 6.742937024387891 15.602983258748239
295 He 6.562142516376219 15.456257911721197 15.602983258748239
296 He 15.275465047143818 15.456257911721197 15.602983258748239
297 He 5.614823521756857 4.268402812433377 6.550468865552568
298 He 14.328146052524456 4.268402812433377 6.550468865552568
299 He 5.614823521756858 12.98172369976668 6.550468865552568
300 He 14.328146052524456 12.98172369976668 6.550468865552568
301 He 5.614823521756858 4.2684028124333775 15.263793277379417
302 He 14.328146052524458 4.2684028124333775 15.263793277379417
303 He 5.6148235217568585 12.981723699766683 15.263793277379417
304 He 14.328146052524458 12.981723699766683 15.263793277379417
305 He 6.537526589112578 5.68177144436747 4.385038651989096
306 He 15.250849119880176 5.68177144436747 4.385038651989096
307 He 6.537526589112579 14.395092331700775 4.385038651989096
308 He 15.250849119880176 14.395092331700775 4.385038651989096
309 He 6.537526589112579 5.681771444367471 13.098363063815944
310 He 15.250849119880176 5.681771444367471 13.098363063815944
311 He 6.53752658911258 14.395092331700777 13.098363063815944
312 He 15.250849119880176 14.395092331700777 13.098363063815944