Mg4Zn7 (100) raw slab - Type1=Zn Type2=Mg

440 atoms
2 atom types

0.000000 10.673142 xlo xhi
0.000000 14.451674 ylo yhi
0.000000 67.274207 zlo zhi

Masses

1 65.38
2 24.305

Atoms

1 2 5.288286 5.358486 25.524135
2 2 5.288286 3.310784 15.426754
3 2 2.620000 8.210473 12.659654
4 2 2.620000 0.458797 28.291234
5 2 5.288286 5.047275 28.778153
6 2 5.288286 3.621995 12.172736
7 2 2.620000 7.899261 15.913672
8 2 2.620000 0.770009 25.037217
9 2 5.288286 13.268341 29.208523
10 2 5.288286 9.852603 11.742366
11 2 2.620000 1.668653 16.344043
12 2 2.620000 7.000617 24.606846
13 2 5.288286 2.407974 24.113894
14 2 5.288286 6.261296 16.836995
15 2 2.620000 5.259961 11.249414
16 2 2.620000 3.409309 29.701475
17 2 5.288286 8.012279 30.210529
18 2 5.288286 0.656991 10.740360
19 2 2.620000 10.864266 17.346048
20 2 2.620000 12.256678 23.604840
21 2 5.288286 13.031743 32.447534
22 2 5.288286 10.089201 8.503355
23 2 2.620000 1.432055 19.583053
24 2 2.620000 7.237215 21.367835
25 2 5.288286 2.752416 20.864481
26 2 5.288286 5.916854 20.086408
27 2 2.620000 5.604403 8.000000
28 2 2.620000 3.064867 32.950889
29 2 5.288286 11.893525 21.931457
30 2 5.288286 11.227419 19.019431
31 2 2.620000 0.293837 9.066977
32 2 2.620000 8.375432 31.883912
33 2 5.288286 10.079267 33.134604
34 2 5.288286 7.337704 33.545246
35 2 2.620000 12.931254 20.270123
36 2 2.620000 10.189691 20.680765
37 2 5.288286 10.301977 27.835672
38 2 5.288286 12.818967 13.115217
39 2 2.620000 13.153964 14.971191
40 2 2.620000 9.966980 25.979697
41 1 5.288286 1.482648 33.339925
42 1 2.620000 4.334635 20.475444
43 1 1.285857 2.908642 26.907685
44 1 3.954143 2.908642 26.907685
45 1 3.954143 5.760628 14.043204
46 1 1.285857 5.760628 14.043204
47 1 5.288286 3.272692 31.331412
48 1 5.288286 5.396578 9.619476
49 1 2.620000 6.124679 18.466932
50 1 2.620000 2.544591 22.483957
51 1 5.288286 1.931466 29.005136
52 1 5.288286 6.737803 11.945753
53 1 2.620000 4.783453 16.140656
54 1 2.620000 3.885817 24.810233
55 1 5.288286 0.607954 26.673273
56 1 5.288286 8.061316 14.277616
57 1 2.620000 3.459940 13.808792
58 1 2.620000 5.209329 27.142097
59 1 5.288286 8.475762 25.321585
60 1 5.288286 0.193508 15.629303
61 1 2.620000 11.327749 12.457105
62 1 2.620000 11.793196 28.493784
63 1 5.288286 7.140296 22.992439
64 1 5.288286 1.528974 17.958449
65 1 2.620000 9.992283 10.127959
66 1 2.620000 13.128661 30.822930
67 1 5.288286 13.769432 24.319251
68 1 5.288286 9.351512 16.631638
69 1 2.620000 2.169744 11.454771
70 1 2.620000 6.499526 29.496118
71 1 5.288286 11.118172 24.834247
72 1 5.288286 12.002772 16.116642
73 1 2.620000 13.970159 11.969766
74 1 2.620000 9.150785 28.981123
75 1 5.288286 8.881397 20.965024
76 1 5.288286 14.239548 19.985865
77 1 2.620000 11.733383 8.100543
78 1 2.620000 11.387561 32.850345
79 1 1.279989 5.541083 31.568222
80 1 3.960011 5.541083 31.568222
81 1 3.960011 3.128187 9.382666
82 1 1.279989 3.128187 9.382666
83 1 3.948274 8.393070 18.703742
84 1 1.291726 8.393070 18.703742
85 1 1.291726 0.276200 22.247147
86 1 3.948274 0.276200 22.247147
87 1 1.266245 7.497927 27.379491
88 1 3.973755 7.497927 27.379491
89 1 3.973755 1.171342 13.571397
90 1 1.266245 1.171342 13.571397
91 1 3.934530 10.349914 14.515011
92 1 1.305470 10.349914 14.515011
93 1 1.305470 12.771030 26.435878
94 1 3.934530 12.771030 26.435878
95 1 1.252595 10.807830 30.585597
96 1 3.987405 10.807830 30.585597
97 1 3.987405 12.313114 10.365291
98 1 1.252595 12.313114 10.365291
99 1 3.920881 13.659817 17.721117
100 1 1.319119 13.659817 17.721117
101 1 1.319119 9.461128 23.229772
102 1 3.920881 9.461128 23.229772
103 1 1.305539 0.951999 31.082177
104 1 3.934461 0.951999 31.082177
105 1 3.934461 7.717271 9.868712
106 1 1.305539 7.717271 9.868712
107 1 3.973825 3.803985 18.217696
108 1 1.266175 3.803985 18.217696
109 1 1.266175 4.865285 22.733192
110 1 3.973825 4.865285 22.733192
111 2 5.288286 14.106187 51.253096
112 2 5.288286 12.058485 41.155715
113 2 2.620000 2.506499 38.388615
114 2 2.620000 9.206498 54.020195
115 2 5.288286 13.794976 54.507114
116 2 5.288286 12.369696 37.901697
117 2 2.620000 2.195288 41.642633
118 2 2.620000 9.517710 50.766178
119 2 5.288286 7.564368 54.937484
120 2 5.288286 4.148630 37.471327
121 2 2.620000 10.416354 42.073004
122 2 2.620000 1.296643 50.335807
123 2 5.288286 11.155675 49.842855
124 2 5.288286 0.557322 42.565956
125 2 2.620000 14.007662 36.978375
126 2 2.620000 12.157010 55.430436
127 2 5.288286 2.308306 55.939490
128 2 5.288286 9.404692 36.469321
129 2 2.620000 5.160293 43.075009
130 2 2.620000 6.552705 49.333801
131 2 5.288286 7.327770 58.176495
132 2 5.288286 4.385228 34.232316
133 2 2.620000 10.179756 45.312014
134 2 2.620000 1.533241 47.096796
135 2 5.288286 11.500117 46.593442
136 2 5.288286 0.212881 45.815369
137 2 2.620000 14.352104 33.728961
138 2 2.620000 11.812568 58.679850
139 2 5.288286 6.189552 47.660418
140 2 5.288286 5.523446 44.748393
141 2 2.620000 9.041538 34.795938
142 2 2.620000 2.671459 57.612873
143 2 5.288286 4.375294 58.863565
144 2 5.288286 1.633731 59.274207
145 2 2.620000 7.227280 45.999085
146 2 2.620000 4.485717 46.409726
147 2 5.288286 4.598004 53.564633
148 2 5.288286 7.114994 38.844178
149 2 2.620000 7.449991 40.700152
150 2 2.620000 4.263007 51.708658
151 1 5.288286 10.230349 59.068886
152 1 2.620000 13.082336 46.204405
153 1 1.285857 11.656343 52.636646
154 1 3.954143 11.656343 52.636646
155 1 3.954143 0.056655 39.772165
156 1 1.285857 0.056655 39.772165
157 1 5.288286 12.020393 57.060373
158 1 5.288286 14.144279 35.348437
159 1 2.620000 0.420706 44.195893
160 1 2.620000 11.292292 48.212918
161 1 5.288286 10.679167 54.734097
162 1 5.288286 1.033830 37.674714
163 1 2.620000 13.531154 41.869617
164 1 2.620000 12.633518 50.539194
165 1 5.288286 9.355655 52.402234
166 1 5.288286 2.357343 40.006577
167 1 2.620000 12.207641 39.537753
168 1 2.620000 13.957030 52.871058
169 1 5.288286 2.771789 51.050546
170 1 5.288286 8.941209 41.358264
171 1 2.620000 5.623775 38.186066
172 1 2.620000 6.089222 54.222745
173 1 5.288286 1.436323 48.721400
174 1 5.288286 10.276675 43.687410
175 1 2.620000 4.288310 35.856920
176 1 2.620000 7.424688 56.551891
177 1 5.288286 8.065459 50.048212
178 1 5.288286 3.647539 42.360599
179 1 2.620000 10.917445 37.183732
180 1 2.620000 0.795552 55.225079
181 1 5.288286 5.414199 50.563208
182 1 5.288286 6.298799 41.845603
183 1 2.620000 8.266185 37.698727
184 1 2.620000 3.446812 54.710084
185 1 5.288286 3.177423 46.693985
186 1 5.288286 8.535574 45.714826
187 1 2.620000 6.029410 33.829504
188 1 2.620000 5.683588 58.579306
189 1 1.279989 14.288784 57.297183
190 1 3.960011 14.288784 57.297183
191 1 3.960011 11.875888 35.111627
192 1 1.279989 11.875888 35.111627
193 1 3.948274 2.689097 44.432703
194 1 1.291726 2.689097 44.432703
195 1 1.291726 9.023901 47.976108
196 1 3.948274 9.023901 47.976108
197 1 1.266245 1.793954 53.108452
198 1 3.973755 1.793954 53.108452
199 1 3.973755 9.919043 39.300358
200 1 1.266245 9.919043 39.300358
201 1 3.934530 4.645941 40.243972
202 1 1.305470 4.645941 40.243972
203 1 1.305470 7.067057 52.164839
204 1 3.934530 7.067057 52.164839
205 1 1.252595 5.103857 56.314558
206 1 3.987405 5.103857 56.314558
207 1 3.987405 6.609141 36.094252
208 1 1.252595 6.609141 36.094252
209 1 3.920881 7.955843 43.450078
210 1 1.319119 7.955843 43.450078
211 1 1.319119 3.757154 48.958733
212 1 3.920881 3.757154 48.958733
213 1 1.305539 9.699700 56.811138
214 1 3.934461 9.699700 56.811138
215 1 3.934461 2.013298 35.597673
216 1 1.305539 2.013298 35.597673
217 1 3.973825 12.551686 43.946657
218 1 1.266175 12.551686 43.946657
219 1 1.266175 13.612986 48.462153
220 1 3.973825 13.612986 48.462153
221 2 10.624857 5.358486 25.524135
222 2 10.624857 3.310784 15.426754
223 2 7.956571 8.210473 12.659654
224 2 7.956571 0.458797 28.291234
225 2 10.624857 5.047275 28.778153
226 2 10.624857 3.621995 12.172736
227 2 7.956571 7.899261 15.913672
228 2 7.956571 0.770009 25.037217
229 2 10.624857 13.268341 29.208523
230 2 10.624857 9.852603 11.742366
231 2 7.956571 1.668653 16.344043
232 2 7.956571 7.000617 24.606846
233 2 10.624857 2.407974 24.113894
234 2 10.624857 6.261296 16.836995
235 2 7.956571 5.259961 11.249414
236 2 7.956571 3.409309 29.701475
237 2 10.624857 8.012279 30.210529
238 2 10.624857 0.656991 10.740360
239 2 7.956571 10.864266 17.346048
240 2 7.956571 12.256678 23.604840
241 2 10.624857 13.031743 32.447534
242 2 10.624857 10.089201 8.503355
243 2 7.956571 1.432055 19.583053
244 2 7.956571 7.237215 21.367835
245 2 10.624857 2.752416 20.864481
246 2 10.624857 5.916854 20.086408
247 2 7.956571 5.604403 8.000000
248 2 7.956571 3.064867 32.950889
249 2 10.624857 11.893525 21.931457
250 2 10.624857 11.227419 19.019431
251 2 7.956571 0.293837 9.066977
252 2 7.956571 8.375432 31.883912
253 2 10.624857 10.079267 33.134604
254 2 10.624857 7.337704 33.545246
255 2 7.956571 12.931254 20.270123
256 2 7.956571 10.189691 20.680765
257 2 10.624857 10.301977 27.835672
258 2 10.624857 12.818967 13.115217
259 2 7.956571 13.153964 14.971191
260 2 7.956571 9.966980 25.979697
261 1 10.624857 1.482648 33.339925
262 1 7.956571 4.334635 20.475444
263 1 6.622428 2.908642 26.907685
264 1 9.290714 2.908642 26.907685
265 1 9.290714 5.760628 14.043204
266 1 6.622428 5.760628 14.043204
267 1 10.624857 3.272692 31.331412
268 1 10.624857 5.396578 9.619476
269 1 7.956571 6.124679 18.466932
270 1 7.956571 2.544591 22.483957
271 1 10.624857 1.931466 29.005136
272 1 10.624857 6.737803 11.945753
273 1 7.956571 4.783453 16.140656
274 1 7.956571 3.885817 24.810233
275 1 10.624857 0.607954 26.673273
276 1 10.624857 8.061316 14.277616
277 1 7.956571 3.459940 13.808792
278 1 7.956571 5.209329 27.142097
279 1 10.624857 8.475762 25.321585
280 1 10.624857 0.193508 15.629303
281 1 7.956571 11.327749 12.457105
282 1 7.956571 11.793196 28.493784
283 1 10.624857 7.140296 22.992439
284 1 10.624857 1.528974 17.958449
285 1 7.956571 9.992283 10.127959
286 1 7.956571 13.128661 30.822930
287 1 10.624857 13.769432 24.319251
288 1 10.624857 9.351512 16.631638
289 1 7.956571 2.169744 11.454771
290 1 7.956571 6.499526 29.496118
291 1 10.624857 11.118172 24.834247
292 1 10.624857 12.002772 16.116642
293 1 7.956571 13.970159 11.969766
294 1 7.956571 9.150785 28.981123
295 1 10.624857 8.881397 20.965024
296 1 10.624857 14.239548 19.985865
297 1 7.956571 11.733383 8.100543
298 1 7.956571 11.387561 32.850345
299 1 6.616560 5.541083 31.568222
300 1 9.296582 5.541083 31.568222
301 1 9.296582 3.128187 9.382666
302 1 6.616560 3.128187 9.382666
303 1 9.284845 8.393070 18.703742
304 1 6.628297 8.393070 18.703742
305 1 6.628297 0.276200 22.247147
306 1 9.284845 0.276200 22.247147
307 1 6.602816 7.497927 27.379491
308 1 9.310326 7.497927 27.379491
309 1 9.310326 1.171342 13.571397
310 1 6.602816 1.171342 13.571397
311 1 9.271101 10.349914 14.515011
312 1 6.642041 10.349914 14.515011
313 1 6.642041 12.771030 26.435878
314 1 9.271101 12.771030 26.435878
315 1 6.589166 10.807830 30.585597
316 1 9.323976 10.807830 30.585597
317 1 9.323976 12.313114 10.365291
318 1 6.589166 12.313114 10.365291
319 1 9.257452 13.659817 17.721117
320 1 6.655690 13.659817 17.721117
321 1 6.655690 9.461128 23.229772
322 1 9.257452 9.461128 23.229772
323 1 6.642110 0.951999 31.082177
324 1 9.271032 0.951999 31.082177
325 1 9.271032 7.717271 9.868712
326 1 6.642110 7.717271 9.868712
327 1 9.310396 3.803985 18.217696
328 1 6.602746 3.803985 18.217696
329 1 6.602746 4.865285 22.733192
330 1 9.310396 4.865285 22.733192
331 2 10.624857 14.106187 51.253096
332 2 10.624857 12.058485 41.155715
333 2 7.956571 2.506499 38.388615
334 2 7.956571 9.206498 54.020195
335 2 10.624857 13.794976 54.507114
336 2 10.624857 12.369696 37.901697
337 2 7.956571 2.195288 41.642633
338 2 7.956571 9.517710 50.766178
339 2 10.624857 7.564368 54.937484
340 2 10.624857 4.148630 37.471327
341 2 7.956571 10.416354 42.073004
342 2 7.956571 1.296643 50.335807
343 2 10.624857 11.155675 49.842855
344 2 10.624857 0.557322 42.565956
345 2 7.956571 14.007662 36.978375
346 2 7.956571 12.157010 55.430436
347 2 10.624857 2.308306 55.939490
348 2 10.624857 9.404692 36.469321
349 2 7.956571 5.160293 43.075009
350 2 7.956571 6.552705 49.333801
351 2 10.624857 7.327770 58.176495
352 2 10.624857 4.385228 34.232316
353 2 7.956571 10.179756 45.312014
354 2 7.956571 1.533241 47.096796
355 2 10.624857 11.500117 46.593442
356 2 10.624857 0.212881 45.815369
357 2 7.956571 14.352104 33.728961
358 2 7.956571 11.812568 58.679850
359 2 10.624857 6.189552 47.660418
360 2 10.624857 5.523446 44.748393
361 2 7.956571 9.041538 34.795938
362 2 7.956571 2.671459 57.612873
363 2 10.624857 4.375294 58.863565
364 2 10.624857 1.633731 59.274207
365 2 7.956571 7.227280 45.999085
366 2 7.956571 4.485717 46.409726
367 2 10.624857 4.598004 53.564633
368 2 10.624857 7.114994 38.844178
369 2 7.956571 7.449991 40.700152
370 2 7.956571 4.263007 51.708658
371 1 10.624857 10.230349 59.068886
372 1 7.956571 13.082336 46.204405
373 1 6.622428 11.656343 52.636646
374 1 9.290714 11.656343 52.636646
375 1 9.290714 0.056655 39.772165
376 1 6.622428 0.056655 39.772165
377 1 10.624857 12.020393 57.060373
378 1 10.624857 14.144279 35.348437
379 1 7.956571 0.420706 44.195893
380 1 7.956571 11.292292 48.212918
381 1 10.624857 10.679167 54.734097
382 1 10.624857 1.033830 37.674714
383 1 7.956571 13.531154 41.869617
384 1 7.956571 12.633518 50.539194
385 1 10.624857 9.355655 52.402234
386 1 10.624857 2.357343 40.006577
387 1 7.956571 12.207641 39.537753
388 1 7.956571 13.957030 52.871058
389 1 10.624857 2.771789 51.050546
390 1 10.624857 8.941209 41.358264
391 1 7.956571 5.623775 38.186066
392 1 7.956571 6.089222 54.222745
393 1 10.624857 1.436323 48.721400
394 1 10.624857 10.276675 43.687410
395 1 7.956571 4.288310 35.856920
396 1 7.956571 7.424688 56.551891
397 1 10.624857 8.065459 50.048212
398 1 10.624857 3.647539 42.360599
399 1 7.956571 10.917445 37.183732
400 1 7.956571 0.795552 55.225079
401 1 10.624857 5.414199 50.563208
402 1 10.624857 6.298799 41.845603
403 1 7.956571 8.266185 37.698727
404 1 7.956571 3.446812 54.710084
405 1 10.624857 3.177423 46.693985
406 1 10.624857 8.535574 45.714826
407 1 7.956571 6.029410 33.829504
408 1 7.956571 5.683588 58.579306
409 1 6.616560 14.288784 57.297183
410 1 9.296582 14.288784 57.297183
411 1 9.296582 11.875888 35.111627
412 1 6.616560 11.875888 35.111627
413 1 9.284845 2.689097 44.432703
414 1 6.628297 2.689097 44.432703
415 1 6.628297 9.023901 47.976108
416 1 9.284845 9.023901 47.976108
417 1 6.602816 1.793954 53.108452
418 1 9.310326 1.793954 53.108452
419 1 9.310326 9.919043 39.300358
420 1 6.602816 9.919043 39.300358
421 1 9.271101 4.645941 40.243972
422 1 6.642041 4.645941 40.243972
423 1 6.642041 7.067057 52.164839
424 1 9.271101 7.067057 52.164839
425 1 6.589166 5.103857 56.314558
426 1 9.323976 5.103857 56.314558
427 1 9.323976 6.609141 36.094252
428 1 6.589166 6.609141 36.094252
429 1 9.257452 7.955843 43.450078
430 1 6.655690 7.955843 43.450078
431 1 6.655690 3.757154 48.958733
432 1 9.257452 3.757154 48.958733
433 1 6.642110 9.699700 56.811138
434 1 9.271032 9.699700 56.811138
435 1 9.271032 2.013298 35.597673
436 1 6.642110 2.013298 35.597673
437 1 9.310396 12.551686 43.946657
438 1 6.602746 12.551686 43.946657
439 1 6.602746 13.612986 48.462153
440 1 9.310396 13.612986 48.462153
