Generated by pymatgen.io.lammps.data.LammpsData

1100  atoms

   2  atom types

0.000000 26.888543  xlo xhi
0.000000 14.122763  ylo yhi
0.000000 68.148926  zlo zhi
3.065691 0.000000 0.000000  xy xz yz

Masses

1  24.305
2  65.409

Atoms

1     1 18.877987  5.207035 11.456790
2     1  9.650447  9.305490  9.406089
3     1  5.433715  5.207035 11.456790
4     1 23.094719  9.305490  9.406089
5     1 22.057692  4.835262 12.117656
6     1  6.470742  9.677264  8.745223
7     1  8.613420  4.835262 12.117656
8     1 19.915014  9.677264  8.745223
9     1 23.791226 10.834671 12.205061
10    1  4.737208  3.677854  8.657818
11    1 10.346954 10.834671 12.205061
12    1 18.181479  3.677854  8.657818
13    1 18.154467  8.383320 11.170381
14    1 10.373967  6.129205  9.692498
15    1  4.710196  8.383320 11.170381
16    1 23.818238  6.129205  9.692498
17    1 22.799318  1.640216 12.408561
18    1  5.729116 12.872310  8.454319
19    1  9.355046  1.640216 12.408561
20    1 19.173388 12.872310  8.454319
21    1 26.940743 10.393100 12.862879
22    1  1.587691  4.119425  8.000000
23    1 13.496472 10.393100 12.862879
24    1 15.031962  4.119425  8.000000
25    1 14.972118  8.721663 10.510450
26    1 13.556316  5.790862 10.352429
27    1 28.416390  8.721663 10.510450
28    1 27.000587  5.790862 10.352429
29    1 17.119632 13.689738 10.727145
30    1 11.408802  0.822787 10.135735
31    1  3.675361 13.689738 10.727145
32    1 24.853073  0.822787 10.135735
33    1 28.224503 13.135666 13.002418
34    1 26.133324  1.606774 13.085816
35    1 14.780232 13.135666 13.002418
36    1 12.689052  1.606774 13.085816
37    1 23.106846 14.018681 11.926245
38    1  5.421588  0.493844  8.936634
39    1  9.662575 14.018681 11.926245
40    1 18.865859  0.493844  8.936634
41    2 27.178914  7.371220 13.044117
42    2 13.734642  7.371220 13.044117
43    2 20.456778  7.371220 13.044117
44    2 20.986353  7.256263 10.431440
45    2  7.012506  7.371220 13.044117
46    2  7.542081  7.256263 10.431440
47    2 24.877290  6.039110 12.636203
48    2  3.651144  8.473415  8.226676
49    2 11.433019  6.039110 12.636203
50    2 17.095415  8.473415  8.226676
51    2 22.935855  7.833008 12.163755
52    2  5.592579  6.679517  8.699125
53    2  9.491584  7.833008 12.163755
54    2 19.036850  6.679517  8.699125
55    2 20.985317  9.610757 11.690171
56    2  7.543117  4.901768  9.172708
57    2  7.541045  9.610757 11.690171
58    2 20.987389  4.901768  9.172708
59    2 18.022892  2.202779 11.415654
60    2 10.505542 12.309747  9.447226
61    2  4.578620  2.202779 11.415654
62    2 23.949813 12.309747  9.447226
63    2 16.077489  3.991644 10.942622
64    2 12.450945 10.520881  9.920257
65    2  2.633218  3.991644 10.942622
66    2 25.895216 10.520881  9.920257
67    2 19.006508 11.360550 11.212087
68    2  9.521926  3.151975  9.650792
69    2  5.562236 11.360550 11.212087
70    2 22.966198  3.151975  9.650792
71    2 20.061716 13.844498 11.316679
72    2  8.466718  0.668028  9.546200
73    2  6.617445 13.844498 11.316679
74    2 21.910989  0.668028  9.546200
75    2 13.768160  2.711291 10.530869
76    2 14.760273 11.801235 10.332010
77    2 27.212432  2.711291 10.530869
78    2 28.204545 11.801235 10.332010
79    2 25.418212  3.600469  8.759536
80    2 24.886307  3.715932 11.383705
81    2  3.110222 10.912056 12.103344
82    2  3.642127 10.796593  9.479174
83    2 11.973940  3.600469  8.759536
84    2 11.442036  3.715932 11.383705
85    2 16.554494 10.912056 12.103344
86    2 17.086398 10.796593  9.479174
87    2 19.938587  2.787538 13.120733
88    2 20.460377  2.674271 10.546464
89    2  7.530698 11.954902 12.967500
90    2  8.068057 11.838254 10.316415
91    2  6.494315  2.787538 13.120733
92    2  7.016105  2.674271 10.546464
93    2 20.974969 11.954902 12.967500
94    2 21.512329 11.838254 10.316415
95    2 26.431835 12.779277  8.533149
96    2 25.889057 12.897101 11.210964
97    2  2.096599  1.733248 12.329730
98    2  2.639377  1.615425  9.651915
99    2 12.987563 12.779277  8.533149
100   2 12.444786 12.897101 11.210964
101   2 15.540871  1.733248 12.329730
102   2 16.083648  1.615425  9.651915
103   2 25.921557  8.187168  8.685841
104   2 25.399795  8.300429 11.259975
105   2  2.606877  6.325357 12.177038
106   2  3.128639  6.212096  9.602904
107   2 12.477285  8.187168  8.685841
108   2 11.955523  8.300429 11.259975
109   2 16.051148  6.325357 12.177038
110   2 16.572911  6.212096  9.602904
111   1 17.818837  5.436949 16.682145
112   1  8.591298  9.535405 14.631444
113   1  4.374565  5.436949 16.682145
114   1 22.035569  9.535405 14.631444
115   1 20.998542  5.065176 17.343011
116   1  5.411593  9.907178 13.970578
117   1  7.554271  5.065176 17.343011
118   1 18.855864  9.907178 13.970578
119   1 22.732076 11.064586 17.430416
120   1  3.678058  3.907768 13.883173
121   1  9.287805 11.064586 17.430416
122   1 17.122330  3.907768 13.883173
123   1 17.095317  8.613235 16.395736
124   1  9.314817  6.359119 14.917853
125   1  3.651046  8.613235 16.395736
126   1 22.759089  6.359119 14.917853
127   1 21.740168  1.870130 17.633915
128   1  4.669967 13.102224 13.679673
129   1  8.295897  1.870130 17.633915
130   1 18.114238 13.102224 13.679673
131   1 25.881594 10.623014 18.088234
132   1 27.417084  4.349340 13.225355
133   1 12.437322 10.623014 18.088234
134   1 13.972813  4.349340 13.225355
135   1 13.912968  8.951578 15.735805
136   1 12.497166  6.020776 15.577784
137   1 27.357240  8.951578 15.735805
138   1 25.941438  6.020776 15.577784
139   1 16.060483 13.919653 15.952499
140   1 10.349652  1.052701 15.361089
141   1 29.504754 13.919653 15.952499
142   1 23.793924  1.052701 15.361089
143   1 27.165354 13.365580 18.227773
144   1 25.074174  1.836688 18.311171
145   1 13.721082 13.365580 18.227773
146   1 11.629903  1.836688 18.311171
147   1 18.982005  0.125833 17.151600
148   1  4.362438  0.723758 14.161989
149   1  5.537734  0.125833 17.151600
150   1 17.806710  0.723758 14.161989
151   2 26.119764  7.601134 18.269472
152   2 12.675492  7.601134 18.269472
153   2 19.397628  7.601134 18.269472
154   2 19.927203  7.486177 15.656794
155   2  5.953357  7.601134 18.269472
156   2  6.482932  7.486177 15.656794
157   2 23.818140  6.269025 17.861558
158   2  2.591994  8.703329 13.452030
159   2 10.373869  6.269025 17.861558
160   2 16.036266  8.703329 13.452030
161   2 21.876706  8.062923 17.389109
162   2  4.533429  6.909431 13.924479
163   2  8.432434  8.062923 17.389109
164   2 17.977700  6.909431 13.924479
165   2 19.926167  9.840671 16.915526
166   2  6.483968  5.131682 14.398063
167   2  6.481895  9.840671 16.915526
168   2 19.928239  5.131682 14.398063
169   2 16.963742  2.432693 16.641008
170   2  9.446392 12.539661 14.672580
171   2  3.519471  2.432693 16.641008
172   2 22.890664 12.539661 14.672580
173   2 15.018340  4.221558 16.167977
174   2 11.391795 10.750796 15.145612
175   2  1.574068  4.221558 16.167977
176   2 24.836066 10.750796 15.145612
177   2 17.947358 11.590464 16.437442
178   2  8.462777  3.381890 14.876147
179   2  4.503087 11.590464 16.437442
180   2 21.907048  3.381890 14.876147
181   2 19.002566 14.074412 16.542034
182   2  7.407568  0.897942 14.771555
183   2  5.558295 14.074412 16.542034
184   2 20.851840  0.897942 14.771555
185   2 12.709011  2.941205 15.756224
186   2 13.701124 12.031149 15.557364
187   2 26.153282  2.941205 15.756224
188   2 27.145395 12.031149 15.557364
189   2 24.359062  3.830384 13.984890
190   2 23.827158  3.945847 16.609060
191   2 28.939616 11.141970 17.328698
192   2  2.582977 11.026507 14.704529
193   2 10.914790  3.830384 13.984890
194   2 10.382886  3.945847 16.609060
195   2 15.495344 11.141970 17.328698
196   2 16.027248 11.026507 14.704529
197   2 18.879437  3.017452 18.346088
198   2 19.401227  2.904185 15.771818
199   2  6.471548 12.184816 18.192855
200   2  7.008908 12.068169 15.541770
201   2  5.435166  3.017452 18.346088
202   2  5.956955  2.904185 15.771818
203   2 19.915819 12.184816 18.192855
204   2 20.453179 12.068169 15.541770
205   2 25.372685 13.009192 13.758504
206   2 24.829907 13.127015 16.436319
207   2  1.037449  1.963162 17.555085
208   2  1.580227  1.845339 14.877270
209   2 11.928414 13.009192 13.758504
210   2 11.385636 13.127015 16.436319
211   2 14.481721  1.963162 17.555085
212   2 15.024499  1.845339 14.877270
213   2 24.862407  8.417082 13.911196
214   2 24.340645  8.530344 16.485330
215   2  1.547727  6.555272 17.402393
216   2  2.069490  6.442010 14.828259
217   2 11.418136  8.417082 13.911196
218   2 10.896374  8.530344 16.485330
219   2 14.991999  6.555272 17.402393
220   2 15.513761  6.442010 14.828259
221   1 16.759687  5.666864 21.907499
222   1  7.532148  9.765319 19.856799
223   1  3.315416  5.666864 21.907499
224   1 20.976419  9.765319 19.856799
225   1 19.939392  5.295090 22.568365
226   1  4.352443 10.137092 19.195933
227   1  6.495121  5.295090 22.568365
228   1 17.796714 10.137092 19.195933
229   1 21.672927 11.294500 22.655770
230   1  2.618909  4.137683 19.108528
231   1  8.228655 11.294500 22.655770
232   1 16.063180  4.137683 19.108528
233   1 16.036168  8.843149 21.621090
234   1  8.255668  6.589034 20.143208
235   1  2.591896  8.843149 21.621090
236   1 21.699939  6.589034 20.143208
237   1 20.681018  2.100044 22.859270
238   1  3.610817 13.332138 18.905028
239   1  7.236747  2.100044 22.859270
240   1 17.055088 13.332138 18.905028
241   1 24.822444 10.852928 23.313589
242   1 26.357934  4.579254 18.450709
243   1 11.378172 10.852928 23.313589
244   1 12.913663  4.579254 18.450709
245   1 12.853819  9.181492 20.961159
246   1 11.438016  6.250690 20.803139
247   1 26.298090  9.181492 20.961159
248   1 24.882288  6.250690 20.803139
249   1 11.935642  0.026804 21.177854
250   1  9.290502  1.282616 20.586444
251   1 25.379913  0.026804 21.177854
252   1 22.734774  1.282616 20.586444
253   1 26.106204 13.595494 23.453127
254   1 24.015024  2.066603 23.536525
255   1 12.661933 13.595494 23.453127
256   1 10.570753  2.066603 23.536525
257   1 17.922856  0.355747 22.376955
258   1  3.303289  0.953673 19.387343
259   1  4.478584  0.355747 22.376955
260   1 16.747560  0.953673 19.387343
261   2 25.060614  7.831048 23.494826
262   2 11.616343  7.831048 23.494826
263   2 18.338479  7.831048 23.494826
264   2 18.868053  7.716091 20.882149
265   2  4.894207  7.831048 23.494826
266   2  5.423782  7.716091 20.882149
267   2 22.758991  6.498939 23.086913
268   2 28.421388  8.933244 18.677385
269   2  9.314719  6.498939 23.086913
270   2 14.977116  8.933244 18.677385
271   2 20.817556  8.292837 22.614464
272   2  3.474279  7.139345 19.149834
273   2  7.373285  8.292837 22.614464
274   2 16.918551  7.139345 19.149834
275   2 18.867017 10.070586 22.140880
276   2  5.424818  5.361597 19.623418
277   2  5.422746 10.070586 22.140880
278   2 18.869090  5.361597 19.623418
279   2 15.904593  2.662607 21.866363
280   2  8.387243 12.769575 19.897935
281   2  2.460321  2.662607 21.866363
282   2 21.831514 12.769575 19.897935
283   2 13.959190  4.451473 21.393331
284   2 10.332645 10.980710 20.370967
285   2 27.403461  4.451473 21.393331
286   2 23.776917 10.980710 20.370967
287   2 16.888208 11.820379 21.662797
288   2  7.403627  3.611804 20.101501
289   2  3.443937 11.820379 21.662797
290   2 20.847898  3.611804 20.101501
291   2 14.877726  0.181563 21.767388
292   2  6.348419  1.127856 19.996910
293   2  1.433454  0.181563 21.767388
294   2 19.792690  1.127856 19.996910
295   2 11.649861  3.171119 20.981579
296   2 12.641974 12.261063 20.782719
297   2 25.094133  3.171119 20.981579
298   2 26.086246 12.261063 20.782719
299   2 23.299912  4.060298 19.210245
300   2 22.768008  4.175761 21.834415
301   2 27.880466 11.371885 22.554053
302   2 28.412370 11.256422 19.929884
303   2  9.855641  4.060298 19.210245
304   2  9.323737  4.175761 21.834415
305   2 14.436195 11.371885 22.554053
306   2 14.968099 11.256422 19.929884
307   2 17.820287  3.247367 23.571443
308   2 18.342077  3.134099 20.997173
309   2  5.412398 12.414730 23.418210
310   2  5.949758 12.298083 20.767125
311   2  4.376016  3.247367 23.571443
312   2  4.897806  3.134099 20.997173
313   2 18.856670 12.414730 23.418210
314   2 19.394030 12.298083 20.767125
315   2 24.313535 13.239106 18.983859
316   2 23.770758 13.356929 21.661674
317   2 26.866843  2.193077 22.780439
318   2  0.521078  2.075253 20.102624
319   2 10.869264 13.239106 18.983859
320   2 10.326486 13.356929 21.661674
321   2 13.422571  2.193077 22.780439
322   2 13.965349  2.075253 20.102624
323   2 23.803258  8.646997 19.136551
324   2 23.281495  8.760258 21.710685
325   2 27.377121  6.785186 22.627747
326   2 27.898883  6.671925 20.053613
327   2 10.358986  8.646997 19.136551
328   2  9.837224  8.760258 21.710685
329   2 13.932849  6.785186 22.627747
330   2 14.454611  6.671925 20.053613
331   1 15.700538  5.896778 27.132854
332   1  6.472998  9.995233 25.082153
333   1  2.256266  5.896778 27.132854
334   1 19.917270  9.995233 25.082153
335   1 18.880243  5.525005 27.793720
336   1  3.293293 10.367007 24.421287
337   1  5.435971  5.525005 27.793720
338   1 16.737565 10.367007 24.421287
339   1 20.613777 11.524414 27.881125
340   1  1.559759  4.367597 24.333882
341   1  7.169506 11.524414 27.881125
342   1 15.004031  4.367597 24.333882
343   1 14.977018  9.073063 26.846445
344   1  7.196518  6.818948 25.368562
345   1 28.421289  9.073063 26.846445
346   1 20.640789  6.818948 25.368562
347   1 19.621869  2.329959 28.084625
348   1 29.440210 13.562053 24.130383
349   1  6.177597  2.329959 28.084625
350   1 15.995939 13.562053 24.130383
351   1 23.763294 11.082843 28.538943
352   1 25.298785  4.809168 23.676064
353   1 10.319023 11.082843 28.538943
354   1 11.854513  4.809168 23.676064
355   1 11.794669  9.411406 26.186514
356   1 10.378867  6.480605 26.028493
357   1 25.238941  9.411406 26.186514
358   1 23.823138  6.480605 26.028493
359   1 10.876492  0.256719 26.403209
360   1  8.231353  1.512530 25.811799
361   1 24.320764  0.256719 26.403209
362   1 21.675624  1.512530 25.811799
363   1 25.047055 13.825409 28.678482
364   1 22.955875  2.296517 28.761880
365   1 11.602783 13.825409 28.678482
366   1  9.511603  2.296517 28.761880
367   1 16.863706  0.585661 27.602310
368   1  2.244139  1.183587 24.612698
369   1  3.419435  0.585661 27.602310
370   1 15.688410  1.183587 24.612698
371   2 24.001465  8.060963 28.720181
372   2 10.557193  8.060963 28.720181
373   2 17.279329  8.060963 28.720181
374   2 17.808904  7.946006 26.107504
375   2  3.835057  8.060963 28.720181
376   2  4.364632  7.946006 26.107504
377   2 21.699841  6.728853 28.312268
378   2 27.362238  9.163158 23.902740
379   2  8.255570  6.728853 28.312268
380   2 13.917966  9.163158 23.902740
381   2 19.758406  8.522751 27.839819
382   2  2.415130  7.369260 24.375189
383   2  6.314135  8.522751 27.839819
384   2 15.859401  7.369260 24.375189
385   2 17.807868 10.300500 27.366235
386   2  4.365668  5.591511 24.848772
387   2  4.363596 10.300500 27.366235
388   2 17.809940  5.591511 24.848772
389   2 14.845443  2.892522 27.091718
390   2  7.328093 12.999490 25.123290
391   2  1.401172  2.892522 27.091718
392   2 20.772364 12.999490 25.123290
393   2 12.900040  4.681387 26.618686
394   2  9.273496 11.210624 25.596321
395   2 26.344312  4.681387 26.618686
396   2 22.717767 11.210624 25.596321
397   2 15.829059 12.050293 26.888151
398   2  6.344477  3.841718 25.326856
399   2 29.273330 12.050293 26.888151
400   2 19.788749  3.841718 25.326856
401   2 13.818576  0.411478 26.992743
402   2  5.289269  1.357771 25.222264
403   2  0.374305  0.411478 26.992743
404   2 18.733540  1.357771 25.222264
405   2 10.590712  3.401034 26.206934
406   2 11.582825 12.490978 26.008074
407   2 24.034983  3.401034 26.206934
408   2 25.027096 12.490978 26.008074
409   2 22.240763  4.290212 24.435600
410   2 21.708858  4.405675 27.059769
411   2 26.821316 11.601799 27.779408
412   2 27.353221 11.486336 25.155238
413   2  8.796491  4.290212 24.435600
414   2  8.264587  4.405675 27.059769
415   2 13.377045 11.601799 27.779408
416   2 13.908949 11.486336 25.155238
417   2 16.761138  3.477281 28.796798
418   2 17.282928  3.364014 26.222528
419   2  4.353249 12.644645 28.643565
420   2  4.890608 12.527997 25.992480
421   2  3.316866  3.477281 28.796798
422   2  3.838656  3.364014 26.222528
423   2 17.797520 12.644645 28.643565
424   2 18.334880 12.527997 25.992480
425   2 23.254386 13.469020 24.209214
426   2 22.711608 13.586844 26.887028
427   2 25.807693  2.422991 28.005794
428   2 26.350471  2.305168 25.327979
429   2  9.810114 13.469020 24.209214
430   2  9.267337 13.586844 26.887028
431   2 12.363422  2.422991 28.005794
432   2 12.906199  2.305168 25.327979
433   2 22.744108  8.876911 24.361905
434   2 22.222346  8.990172 26.936039
435   2 26.317971  7.015100 27.853102
436   2 26.839733  6.901839 25.278968
437   2  9.299837  8.876911 24.361905
438   2  8.778074  8.990172 26.936039
439   2 12.873700  7.015100 27.853102
440   2 13.395462  6.901839 25.278968
441   1 14.641388  6.126692 32.358209
442   1  5.413849 10.225148 30.307508
443   1 28.085659  6.126692 32.358209
444   1 18.858120 10.225148 30.307508
445   1 17.821093  5.754919 33.019075
446   1 29.122687 10.596921 29.646642
447   1  4.376822  5.754919 33.019075
448   1 15.678415 10.596921 29.646642
449   1 19.554627 11.754329 33.106480
450   1 27.389152  4.597511 29.559237
451   1  6.110356 11.754329 33.106480
452   1 13.944881  4.597511 29.559237
453   1 13.917868  9.302978 32.071800
454   1  6.137368  7.048862 30.593917
455   1 27.362140  9.302978 32.071800
456   1 19.581640  7.048862 30.593917
457   1 18.562719  2.559873 33.309979
458   1 28.381060 13.791967 29.355737
459   1  5.118448  2.559873 33.309979
460   1 14.936789 13.791967 29.355737
461   1 22.704145 11.312757 33.764298
462   1 24.239635  5.039083 28.901419
463   1  9.259873 11.312757 33.764298
464   1 10.795364  5.039083 28.901419
465   1 10.735520  9.641321 31.411869
466   1  9.319717  6.710519 31.253848
467   1 24.179791  9.641321 31.411869
468   1 22.763989  6.710519 31.253848
469   1  9.817343  0.486633 31.628564
470   1  7.172203  1.742444 31.037153
471   1 23.261614  0.486633 31.628564
472   1 20.616475  1.742444 31.037153
473   1 23.987905 14.055323 33.903837
474   1 21.896725  2.526431 33.987235
475   1 10.543633 14.055323 33.903837
476   1  8.452454  2.526431 33.987235
477   1 15.804556  0.815576 32.827664
478   1  1.184989  1.413501 29.838053
479   1  2.360285  0.815576 32.827664
480   1 14.629261  1.413501 29.838053
481   2 22.942315  8.290877 33.945536
482   2  9.498044  8.290877 33.945536
483   2 16.220179  8.290877 33.945536
484   2 16.749754  8.175920 31.332858
485   2  2.775908  8.290877 33.945536
486   2  3.305483  8.175920 31.332858
487   2 20.640691  6.958768 33.537622
488   2 26.303088  9.393072 29.128095
489   2  7.196420  6.958768 33.537622
490   2 12.858817  9.393072 29.128095
491   2 18.699257  8.752666 33.065173
492   2 28.244523  7.599174 29.600543
493   2  5.254985  8.752666 33.065173
494   2 14.800252  7.599174 29.600543
495   2 16.748718 10.530414 32.591590
496   2  3.306519  5.821425 30.074127
497   2  3.304447 10.530414 32.591590
498   2 16.750790  5.821425 30.074127
499   2 13.786293  3.122436 32.317073
500   2  6.268943 13.229404 30.348644
501   2 27.230565  3.122436 32.317073
502   2 19.713215 13.229404 30.348644
503   2 11.840891  4.911301 31.844041
504   2  8.214346 11.440539 30.821676
505   2 25.285162  4.911301 31.844041
506   2 21.658618 11.440539 30.821676
507   2 14.769909 12.280207 32.113506
508   2  5.285328  4.071633 30.552211
509   2 28.214181 12.280207 32.113506
510   2 18.729599  4.071633 30.552211
511   2 12.759426  0.641392 32.218098
512   2  4.230119  1.587685 30.447619
513   2 26.203698  0.641392 32.218098
514   2 17.674391  1.587685 30.447619
515   2  9.531562  3.630948 31.432288
516   2 10.523675 12.720892 31.233429
517   2 22.975833  3.630948 31.432288
518   2 23.967946 12.720892 31.233429
519   2 21.181613  4.520127 29.660955
520   2 20.649709  4.635590 32.285124
521   2 25.762167 11.831713 33.004762
522   2 26.294071 11.716250 30.380593
523   2  7.737342  4.520127 29.660955
524   2  7.205437  4.635590 32.285124
525   2 12.317895 11.831713 33.004762
526   2 12.849799 11.716250 30.380593
527   2 15.701988  3.707195 34.022152
528   2 16.223778  3.593928 31.447883
529   2  3.294099 12.874559 33.868919
530   2  3.831459 12.757912 31.217834
531   2  2.257717  3.707195 34.022152
532   2  2.779507  3.593928 31.447883
533   2 16.738370 12.874559 33.868919
534   2 17.275730 12.757912 31.217834
535   2 22.195236 13.698935 29.434568
536   2 21.652458 13.816758 32.112383
537   2 24.748543  2.652905 33.231149
538   2 25.291321  2.535082 30.553334
539   2  8.750965 13.698935 29.434568
540   2  8.208187 13.816758 32.112383
541   2 11.304272  2.652905 33.231149
542   2 11.847050  2.535082 30.553334
543   2 21.684958  9.106825 29.587260
544   2 21.163196  9.220087 32.161394
545   2 25.258821  7.245015 33.078457
546   2 25.780584  7.131753 30.504323
547   2  8.240687  9.106825 29.587260
548   2  7.718925  9.220087 32.161394
549   2 11.814550  7.245015 33.078457
550   2 12.336312  7.131753 30.504323
551   1 13.582238  6.356607 37.583564
552   1  4.354699 10.455062 35.532863
553   1 27.026510  6.356607 37.583564
554   1 17.798971 10.455062 35.532863
555   1 16.761943  5.984833 38.244430
556   1 28.063537 10.826835 34.871997
557   1  3.317672  5.984833 38.244430
558   1 14.619265 10.826835 34.871997
559   1 18.495478 11.984243 38.331835
560   1 26.330003  4.827426 34.784592
561   1  5.051206 11.984243 38.331835
562   1 12.885731  4.827426 34.784592
563   1 12.858719  9.532892 37.297154
564   1  5.078219  7.278777 35.819272
565   1 26.302990  9.532892 37.297154
566   1 18.522490  7.278777 35.819272
567   1 17.503570  2.789787 38.535334
568   1 27.321911 14.021881 34.581092
569   1  4.059298  2.789787 38.535334
570   1 13.877639 14.021881 34.581092
571   1 21.644995 11.542671 38.989653
572   1 23.180485  5.268997 34.126774
573   1  8.200724 11.542671 38.989653
574   1  9.736214  5.268997 34.126774
575   1  9.676370  9.871235 36.637223
576   1  8.260568  6.940433 36.479203
577   1 23.120641  9.871235 36.637223
578   1 21.704839  6.940433 36.479203
579   1  8.758193  0.716547 36.853918
580   1  6.113054  1.972359 36.262508
581   1 22.202464  0.716547 36.853918
582   1 19.557325  1.972359 36.262508
583   1 19.863064  0.162475 39.129191
584   1 20.837575  2.756346 39.212590
585   1  6.418793  0.162475 39.129191
586   1  7.393304  2.756346 39.212590
587   1 14.745407  1.045490 38.053019
588   1 27.014383  1.643416 35.063407
589   1  1.301135  1.045490 38.053019
590   1 13.570111  1.643416 35.063407
591   2 21.883165  8.520791 39.170891
592   2  8.438894  8.520791 39.170891
593   2 15.161030  8.520791 39.170891
594   2 15.690604  8.405834 36.558213
595   2 28.605301  8.520791 39.170891
596   2  2.246333  8.405834 36.558213
597   2 19.581542  7.188682 38.762977
598   2 25.243939  9.622987 34.353449
599   2  6.137270  7.188682 38.762977
600   2 11.799667  9.622987 34.353449
601   2 17.640107  8.982580 38.290528
602   2 27.185373  7.829088 34.825898
603   2  4.195836  8.982580 38.290528
604   2 13.741102  7.829088 34.825898
605   2 15.689568 10.760329 37.816945
606   2  2.247369  6.051340 35.299482
607   2 29.133840 10.760329 37.816945
608   2 15.691641  6.051340 35.299482
609   2 12.727144  3.352350 37.542427
610   2  5.209794 13.459318 35.573999
611   2 26.171415  3.352350 37.542427
612   2 18.654065 13.459318 35.573999
613   2 10.781741  5.141216 37.069396
614   2  7.155196 11.670453 36.047031
615   2 24.226012  5.141216 37.069396
616   2 20.599468 11.670453 36.047031
617   2 13.710759 12.510122 37.338861
618   2  4.226178  4.301547 35.777566
619   2 27.155031 12.510122 37.338861
620   2 17.670449  4.301547 35.777566
621   2 11.700277  0.871306 37.443452
622   2  3.170970  1.817599 35.672974
623   2 25.144548  0.871306 37.443452
624   2 16.615241  1.817599 35.672974
625   2  8.472412  3.860862 36.657643
626   2  9.464525 12.950806 36.458783
627   2 21.916684  3.860862 36.657643
628   2 22.908797 12.950806 36.458783
629   2 20.122463  4.750041 34.886309
630   2 19.590559  4.865504 37.510479
631   2 24.703017 12.061628 38.230117
632   2 25.234921 11.946165 35.605948
633   2  6.678192  4.750041 34.886309
634   2  6.146288  4.865504 37.510479
635   2 11.258746 12.061628 38.230117
636   2 11.790650 11.946165 35.605948
637   2 14.642839  3.937110 39.247507
638   2 15.164628  3.823842 36.673237
639   2 29.123492 13.104473 39.094274
640   2 29.660852 12.987826 36.443189
641   2  1.198567  3.937110 39.247507
642   2  1.720357  3.823842 36.673237
643   2 15.679221 13.104473 39.094274
644   2 16.216581 12.987826 36.443189
645   2 21.136087 13.928849 34.659923
646   2 20.593309 14.046672 37.337738
647   2 23.689394  2.882820 38.456503
648   2 24.232172  2.764996 35.778689
649   2  7.691815 13.928849 34.659923
650   2  7.149037 14.046672 37.337738
651   2 10.245122  2.882820 38.456503
652   2 10.787900  2.764996 35.778689
653   2 20.625809  9.336740 34.812615
654   2 20.104046  9.450001 37.386749
655   2 24.199672  7.474929 38.303811
656   2 24.721434  7.361668 35.729678
657   2  7.181537  9.336740 34.812615
658   2  6.659775  9.450001 37.386749
659   2 10.755400  7.474929 38.303811
660   2 11.277163  7.361668 35.729678
661   1 12.523089  6.586521 42.808918
662   1  3.295549 10.684976 40.758218
663   1 25.967360  6.586521 42.808918
664   1 16.739821 10.684976 40.758218
665   1 15.702794  6.214748 43.469784
666   1 27.004387 11.056749 40.097352
667   1  2.258522  6.214748 43.469784
668   1 13.560116 11.056749 40.097352
669   1 17.436328 12.214157 43.557189
670   1 25.270853  5.057340 40.009947
671   1  3.992057 12.214157 43.557189
672   1 11.826582  5.057340 40.009947
673   1 11.799569  9.762806 42.522509
674   1  4.019069  7.508691 41.044627
675   1 25.243841  9.762806 42.522509
676   1 17.463341  7.508691 41.044627
677   1 16.444420  3.019702 43.760689
678   1 23.197070  0.129033 39.806447
679   1  3.000148  3.019702 43.760689
680   1  9.752799  0.129033 39.806447
681   1 20.585845 11.772586 44.215008
682   1 22.121336  5.498911 39.352128
683   1  7.141574 11.772586 44.215008
684   1  8.677064  5.498911 39.352128
685   1  8.617220 10.101149 41.862578
686   1  7.201418  7.170348 41.704558
687   1 22.061492 10.101149 41.862578
688   1 20.645689  7.170348 41.704558
689   1  7.699043  0.946462 42.079273
690   1  5.053904  2.202273 41.487863
691   1 21.143315  0.946462 42.079273
692   1 18.498175  2.202273 41.487863
693   1 18.803915  0.392389 44.354546
694   1 19.778426  2.986260 44.437944
695   1  5.359643  0.392389 44.354546
696   1  6.334154  2.986260 44.437944
697   1 13.686257  1.275404 43.278374
698   1 25.955233  1.873330 40.288762
699   1 27.130529  1.275404 43.278374
700   1 12.510962  1.873330 40.288762
701   2 20.824016  8.750706 44.396245
702   2  7.379744  8.750706 44.396245
703   2 14.101880  8.750706 44.396245
704   2 14.631455  8.635749 41.783568
705   2 27.546151  8.750706 44.396245
706   2 28.075726  8.635749 41.783568
707   2 18.522392  7.418596 43.988332
708   2 24.184789  9.852901 39.578804
709   2  5.078121  7.418596 43.988332
710   2 10.740518  9.852901 39.578804
711   2 16.580957  9.212494 43.515883
712   2 26.126224  8.059003 40.051253
713   2  3.136686  9.212494 43.515883
714   2 12.681952  8.059003 40.051253
715   2 14.630419 10.990243 43.042299
716   2 28.076762  6.281254 40.524836
717   2 28.074690 10.990243 43.042299
718   2 14.632491  6.281254 40.524836
719   2 11.667994  3.582265 42.767782
720   2  4.150644 13.689233 40.799354
721   2 25.112266  3.582265 42.767782
722   2 17.594916 13.689233 40.799354
723   2  9.722591  5.371130 42.294750
724   2  6.096047 11.900367 41.272386
725   2 23.166863  5.371130 42.294750
726   2 19.540318 11.900367 41.272386
727   2 12.651610 12.740036 42.564216
728   2  3.167028  4.531461 41.002920
729   2 26.095881 12.740036 42.564216
730   2 16.611300  4.531461 41.002920
731   2 10.641127  1.101221 42.668807
732   2  2.111820  2.047514 40.898329
733   2 24.085399  1.101221 42.668807
734   2 15.556091  2.047514 40.898329
735   2  7.413263  4.090777 41.882998
736   2  8.405376 13.180721 41.684138
737   2 20.857534  4.090777 41.882998
738   2 21.849647 13.180721 41.684138
739   2 19.063314  4.979955 40.111664
740   2 18.531409  5.095418 42.735833
741   2 23.643867 12.291542 43.455472
742   2 24.175772 12.176079 40.831302
743   2  5.619042  4.979955 40.111664
744   2  5.087138  5.095418 42.735833
745   2 10.199596 12.291542 43.455472
746   2 10.731500 12.176079 40.831302
747   2 13.583689  4.167024 44.472862
748   2 14.105479  4.053757 41.898592
749   2 28.064343 13.334388 44.319629
750   2 28.601702 13.217740 41.668544
751   2 27.027960  4.167024 44.472862
752   2 27.549750  4.053757 41.898592
753   2 14.620071 13.334388 44.319629
754   2 15.157431 13.217740 41.668544
755   2 17.011246  0.036001 39.885278
756   2 16.468468  0.153824 42.563093
757   2 22.630244  3.112734 43.681858
758   2 23.173022  2.994911 41.004043
759   2  3.566974  0.036001 39.885278
760   2  3.024197  0.153824 42.563093
761   2  9.185973  3.112734 43.681858
762   2  9.728751  2.994911 41.004043
763   2 19.566659  9.566654 40.037970
764   2 19.044897  9.679915 42.612104
765   2 23.140522  7.704843 43.529166
766   2 23.662284  7.591582 40.955032
767   2  6.122388  9.566654 40.037970
768   2  5.600625  9.679915 42.612104
769   2  9.696251  7.704843 43.529166
770   2 10.218013  7.591582 40.955032
771   1 11.463939  6.816435 48.034273
772   1 29.124943 10.914891 45.983572
773   1 24.908211  6.816435 48.034273
774   1 15.680671 10.914891 45.983572
775   1 14.643644  6.444662 48.695139
776   1 25.945238 11.286664 45.322706
777   1 28.087916  6.444662 48.695139
778   1 12.500966 11.286664 45.322706
779   1 16.377178 12.444072 48.782544
780   1 24.211703  5.287254 45.235301
781   1  2.932907 12.444072 48.782544
782   1 10.767432  5.287254 45.235301
783   1 10.740419  9.992721 47.747864