104
Lattice="10.88121737871 0.0 0.0 0.0 17.541020412633998 0.0 0.0 0.0 31.071902912738" Properties=species:S:1:pos:R:3:forces:R:3:energies:R:1 energy=-178.76243013084678 stress="0.0004505226864355958 -6.85919061686162e-07 6.668098151158482e-06 -6.85919061686162e-07 0.00045228165863975045 2.7859251712537717e-06 6.668098151158482e-06 2.7859251712537717e-06 -2.828122580737613e-06" free_energy=-178.76243013084678 pbc="T T F"
Zn       3.58076148      10.95896477      19.47854661       0.01171472       0.00316413       0.02210554      -1.04989561
Zn       4.04222883       2.20902396      19.22125264      -0.03181460      -0.00754633       0.01396943      -0.88931864
Zn       9.88644209      10.97028787      19.37853561      -0.04021443      -0.00691854      -0.00243741      -0.78241482
Zn       9.45687995       2.18720859      19.25592008      -0.00167533       0.00393050       0.00547215      -0.87667196
Zn       6.83898855      15.33199645      11.85065028       0.03181460       0.00754634      -0.01396943      -0.88931864
Zn       7.30045588       6.58205564      11.59335629      -0.01171406      -0.00316412      -0.02210529      -1.04989563
Zn       1.42433743      15.35381182      11.81598283       0.00167530      -0.00393050      -0.00547212      -0.87667196
Zn       0.99477531       6.57073255      11.69336730       0.04021392       0.00691854       0.00243739      -0.78241484
Mg       6.49971789       9.54173288      19.39145751       0.00378134       0.04425293       0.01075410      -2.12251101
Mg       6.84950949       0.59372905      19.19733697      -0.01128459       0.00083370      -0.00308836      -1.81252620
Mg       1.31015215       9.26458519      19.11493329      -0.00742606      -0.00572410      -0.00158188      -1.33009225
Mg       1.42982567       0.62901846      19.19052740      -0.01407988       0.00673001       0.00972409      -1.82074526
Mg       4.02233880      13.77179761      11.87430825       0.02031089      -0.01251021       0.00561447      -1.80064509
Mg       4.39156249       5.17049745      11.66573113      -0.01723165       0.02818899      -0.00707239      -2.12408797
Mg       9.45325582      13.74187897      11.89863939       0.00252739       0.01753803      -0.01382848      -1.82554863
Mg       9.57562703       4.87622798      11.93785885      -0.00609977      -0.00387091      -0.00120812      -1.32886537
Mg       9.57106524       8.27643523      11.95696962       0.00742605       0.00572407       0.00158188      -1.33009225
Mg       4.38149950       7.99928753      11.68044540      -0.00378143      -0.04425306      -0.01075406      -2.12251095
Mg       9.45139172      16.91200196      11.88137552       0.01407978      -0.00673021      -0.00972418      -1.82074524
Mg       4.03170788      16.94729136      11.87456594       0.01128462      -0.00083365       0.00308838      -1.81252621
Mg       1.30559036      12.66479243      19.13404406       0.00609976       0.00387095       0.00120813      -1.32886537
Mg       1.42796155       3.79914146      19.17326351      -0.00252726      -0.01753828       0.01382860      -1.82554861
Mg       6.48965490      12.37052297      19.40617177       0.01723149      -0.02818909       0.00707250      -2.12408800
Mg       6.85887858       3.76922280      19.19759467      -0.02031092       0.01251028      -0.00561450      -1.80064510
Zn       5.53169887       6.64331125      18.47080089      -0.01750249      -0.00978470       0.00940603      -0.88542713
Zn       5.56306655      15.28157682      18.56903169      -0.00700067      -0.00023861      -0.00899717      -0.86350097
Zn       0.16726310       6.53611791      18.48130163      -0.01186208       0.00173154      -0.00373917      -0.89499857
Zn       0.14267090      15.40271050      18.55531793       0.01219122      -0.00476697       0.00116490      -0.87782312
Zn       5.34951851      10.89770917      12.60110202       0.01750249       0.00978469      -0.00940604      -0.88542713
Zn       5.31815083       2.25944359      12.50287122       0.00700067       0.00023861       0.00899717      -0.86350097
Zn      10.71395427      11.00490250      12.59060128       0.01186208      -0.00173153       0.00373917      -0.89499857
Zn      10.73854648       2.13830991      12.51658498      -0.01219121       0.00476697      -0.00116490      -0.87782312
Zn       8.18487201      10.99729736      12.60761207       0.00447762      -0.01017778       0.00694783      -0.90296773
Zn       2.79737011      10.95867206      12.59640538      -0.00827753      -0.00089314      -0.00423978      -0.84258251
Zn       8.20585407       2.13523791      12.58725854      -0.00240730       0.01028970      -0.00613155      -0.89941470
Zn       2.77447366       2.20201964      12.60884622       0.00300246      -0.00534183       0.00303321      -0.86041089
Zn       2.67536331      15.40578250      18.48464437       0.00240730      -0.01028970       0.00613155      -0.89941470
Zn       2.69634537       6.54372305      18.46429085      -0.00447762       0.01017778      -0.00694783      -0.90296773
Zn       8.10674372      15.33900078      18.46305670      -0.00300246       0.00534183      -0.00303321      -0.86041089
Zn       8.08384727       6.58234835      18.47549754       0.00827752       0.00089314       0.00423978      -0.84258251
Zn       4.01697281       8.72545590      17.70365668       0.00063664      -0.02231649       0.00093334      -1.08186701
Zn       4.16601295      17.48610831      17.81755604      -0.00384083       0.00630069       0.00290451      -1.06783227
Zn       9.63469007       8.66514140      17.75454231       0.00085865       0.01174091       0.00469161      -0.98174549
Zn       9.55508304      17.49342047      17.82219436      -0.00841105       0.00403934       0.00622896      -1.07857947
Zn       6.73717449      13.08231362      13.31172619       0.00323607      -0.01229506       0.00318418      -1.07842843
Zn       6.86341027       4.33109595      13.31184941      -0.00412027      -0.00253043       0.00612504      -1.06794225
Zn       1.33624707      13.09866582      13.22532085       0.00276932       0.00688770      -0.00159875      -1.07140700
Zn       1.24477060       4.27543512      13.31236384       0.00039602       0.01978492       0.00767280      -0.98128505
Zn       6.86424457       8.81556451      13.36824623      -0.00063664       0.02231650      -0.00093334      -1.08186701
Zn       1.24652731       8.87587902      13.31736060      -0.00085866      -0.01174090      -0.00469160      -0.98174549
Zn       6.71520443       0.05491210      13.25434687       0.00384083      -0.00630070      -0.00290451      -1.06783227
Zn       1.32613435       0.04759994      13.24970855       0.00841105      -0.00403934      -0.00622896      -1.07857947
Zn       4.01780711      13.20992446      17.76005350       0.00412027       0.00253043      -0.00612503      -1.06794226
Zn       4.14404289       4.45870679      17.76017673      -0.00323607       0.01229507      -0.00318418      -1.07842843
Zn       9.63644678      13.26558529      17.75953907      -0.00039603      -0.01978494      -0.00767278      -0.98128505
Zn       9.54497031       4.44235459      17.84658207      -0.00276933      -0.00688769       0.00159875      -1.07140700
Zn       8.14962495      10.97901969      17.10312545      -0.01365282       0.00747697       0.02843439      -1.19883398
Zn       8.13867761       2.16339465      16.85013456       0.00326193      -0.00834705       0.01033383      -1.06950155
Zn       2.64538052      10.96842756      17.01762733      -0.01260188       0.00302633      -0.01840402      -1.23792131
Zn       2.72479254       2.23420621      16.80105996      -0.01200464      -0.01271089       0.00136507      -1.06382582
Zn       2.74253977      15.37762576      14.22176836      -0.00326194       0.00834705      -0.01033384      -1.06950155
Zn       2.73159243       6.56200072      13.96877745       0.01365281      -0.00747697      -0.02843422      -1.19883399
Zn       8.15642484      15.30681420      14.27084295       0.01200464       0.01271090      -0.00136508      -1.06382582
Zn       8.23583685       6.57259285      14.05427558       0.01260188      -0.00302634       0.01840399      -1.23792131
Zn      10.93003413       6.57144865      14.10919234      -0.00308356       0.00557099      -0.00232382      -1.22626209
Zn       5.61889043       6.58742609      14.18518424      -0.01023240      -0.00086300      -0.02293597      -1.04689079
Zn      10.90631784      15.33082105      13.98823304       0.00889658       0.00954333       0.00975860      -1.21183417
Zn       5.45513081      15.32973419      14.02447953       0.01104754       0.01363457       0.00236211      -1.22694568
Zn      -0.04881675      10.96957176      16.96271057       0.00308358      -0.00557099       0.00232379      -1.22626209
Zn      -0.02510046       2.21019936      17.08366987      -0.00889657      -0.00954333      -0.00975861      -1.21183417
Zn       5.26232694      10.95359432      16.88671867       0.01023240       0.00086299       0.02293598      -1.04689079
Zn       5.42608657       2.21128622      17.04742338      -0.01104753      -0.01363457      -0.00236211      -1.22694568
Mg       6.84537730       4.91874093      16.27899686      -0.00994319       0.00385979       0.00038195      -1.64060669
Mg       6.75428750      13.65076901      16.34682227       0.00449371      -0.00438042       0.00123257      -1.64867526
Mg       1.41297916       4.89814059      16.21198710      -0.00882484      -0.00422505      -0.00206332      -1.64242607
Mg       1.36460669      13.74040907      16.19666930       0.00238446       0.00062303       0.00597975      -1.61169423
Mg       4.07180059       9.27179818      14.71840934       0.00355054      -0.01607853       0.00447232      -1.65071242
Mg       4.08887588       0.55585722      14.81414828       0.00063474      -0.00784016      -0.00259980      -1.63810553
Mg       9.47929178       9.34129951      14.89694822      -0.00103070       0.00348365      -0.00380020      -1.62088032
Mg       9.50195440       0.50411806      14.82406777      -0.00368337      -0.00561246       0.00888918      -1.63376916
Mg       9.46823822      12.64287982      14.85991581       0.00882485       0.00422506       0.00206330      -1.64242607
Mg       4.03584008      12.62227948      14.79290606       0.00994318      -0.00385979      -0.00038195      -1.64060669
Mg       9.51661069       3.80061134      14.87523361      -0.00238446      -0.00062303      -0.00597975      -1.61169423
Mg       4.12692988       3.89025141      14.72508064      -0.00449371       0.00438041      -0.00123258      -1.64867526
Mg       1.37926298      17.03690235      16.24783515       0.00368337       0.00561247      -0.00888917      -1.63376916
Mg       1.40192560       8.19972090      16.17495469       0.00103070      -0.00348366       0.00380020      -1.62088032
Mg       6.79234150      16.98516319      16.25775464      -0.00063473       0.00784017       0.00259980      -1.63810553
Mg       6.80941679       8.26922223      16.35349358      -0.00355054       0.01607853      -0.00447233      -1.65071242
Zn       4.07391912       6.57090508      16.15283618      -0.01542360      -0.00544847       0.01022202      -1.24191150
Zn       4.19626795      15.37099746      16.26128280       0.01423380       0.00260400       0.02130614      -1.23327405
Zn       9.57146773       6.52186867      16.23540962      -0.00964647       0.00103821      -0.01470745      -1.21707132
Zn       9.68743732      15.40492181      16.24987470       0.00298495       0.00479151      -0.01080545      -1.23228615
Zn       6.80729826      10.97011533      14.91906673       0.01542358       0.00544847      -0.01022201      -1.24191150
Zn       6.68494943       2.17002295      14.81062011      -0.01423380      -0.00260400      -0.02130612      -1.23327405
Zn       1.30974965      11.01915174      14.83649329       0.00964647      -0.00103821       0.01470745      -1.21707132
Zn       1.19378006       2.13609860      14.82202821      -0.00298495      -0.00479151       0.01080546      -1.23228615
O        7.91754376      10.96130602      19.21695535       0.03203301       0.00030902      -0.00541004      -7.37465319
O        7.65649097       2.18028096      19.98711410      -0.00545155      -0.01161273       0.00958875      -7.21773745
O        5.35197479      10.94972762      20.12918739       0.00148627      -0.02539080      -0.01881530      -7.06838985
O        2.24653903       2.21784612      19.96299300      -0.00132699       0.00923277      -0.01804488      -7.22747107
O        3.22472641      15.36073946      11.08478881       0.00545159       0.01161261      -0.00958876      -7.21773745
O        2.96367358       6.57971438      11.85494758      -0.03203214      -0.00030894       0.00540979      -7.37465321
O        8.63467835      15.32317427      11.10890992       0.00132696      -0.00923234       0.01804486      -7.22747107
O        5.52924261       6.59129278      10.94271554      -0.00148702       0.02539097       0.01881505      -7.06838989
