LAMMPS data file via write_data, version 2 Aug 2023, timestep = 19, units = metal

110 atoms
2 atom types

0 25.96 xlo xhi
0 5.24 ylo yhi
0 13.941506981672648 zlo zhi
0 -3.090757687036107 0 xy xz yz

Masses

1 65.39
2 24.32

Atoms # atomic

81 1 1.0158477797195917 3.938099008044862 3.4162841926426655 0 0 0
82 1 1.0158477797195915 1.3019009919551383 3.4162841926426655 0 0 0
6 2 3.5956256319166853 2.546383042039189e-16 4.4949465465696985 0 0 0
18 2 2.855006222965987 0 1.330543602784442 0 0 0
31 2 1.3323775503547273 2.62 0.6269751500493878 0 0 0
69 1 3.2118470933757655 2.62 2.9394748436995854 0 0 0
73 1 4.289677376644848 2.6200000000000006 0.49559508640399347 0 0 0
11 2 8.016808510282154 2.62 3.524079697909233 0 0 0
39 2 7.3449649064078235 2.62 0.36071521818008956 0 0 0
60 1 7.651410240733945 5.239999999999999 1.9491542729527114 0 -1 0
89 1 5.463746911076152 3.949450529884493 2.436525845762298 0 0 0
90 1 5.463746911076152 1.2905494701155071 2.436525845762298 0 0 0
23 2 11.189510484737992 2.62 3.9765510725745243 0 0 0
35 2 12.476420196141174 2.62 1.2678390959204164 0 0 0
64 1 9.606469988967108 5.239999999999999 3.7349448849620814 0 -1 0
76 1 11.928919087127273 2.499760918475519e-16 2.4722539501468574 0 0 0
99 1 9.87684019433824 3.892602886484314 1.442217268085671 0 0 0
100 1 9.87684019433824 1.3473971135156864 1.442217268085672 0 0 0
8 2 16.575625631916687 2.62 4.4949465465696985 0 0 0
20 2 15.835006222965985 2.62 1.3305436027844415 0 0 0
29 2 14.312377550354727 0 0.6269751500493885 0 0 0
67 1 16.191847093375767 0 2.939474843699586 0 0 0
71 1 17.26967737664485 3.140862372051493e-17 0.49559508640398947 0 0 0
85 1 13.995847779719591 1.3180990080448607 3.4162841926426655 0 0 0
86 1 13.995847779719591 3.921900991955139 3.4162841926426655 0 0 0
9 2 20.996808510282154 0 3.524079697909232 0 0 0
37 2 20.32496490640782 2.598574693617654e-16 0.36071521818009006 0 0 0
62 1 20.631410240733945 2.62 1.9491542729527112 0 0 0
93 1 18.443746911076154 1.3294505298844959 2.4365258457622967 0 0 0
94 1 18.443746911076154 3.910549470115504 2.4365258457622967 0 0 0
21 2 24.16951048473799 1.6869002348516764e-16 3.9765510725745243 0 0 0
33 2 25.456420196141174 4.409200537561795e-17 1.2678390959204169 0 0 0
66 1 22.586469988967107 2.62 3.7349448849620805 0 0 0
78 1 24.908919087127273 2.62 2.4722539501468574 0 0 0
95 1 22.85684019433824 1.272602886484313 1.4422172680856704 0 0 0
96 1 22.85684019433824 3.9673971135156867 1.4422172680856706 0 0 0
27 2 -0.833093323306651 2.62 5.5246935406017 0 0 0
41 1 -1.5453788435180529 2.3313595254430077e-16 6.970753490836321 0 0 0
48 1 0.7674056071815897 4.524680318299343e-17 5.659182879209927 0 0 0
105 1 0.5110094184747337 3.9095355817911264 7.96308781651598 0 0 0
106 1 0.5110094184747336 1.3304644182088734 7.963087816515979 0 0 0
3 2 3.0999804092739054 2.62 9.032771644275176 0 0 0
15 2 2.36305932568284 2.62 5.884469331258001 0 0 0
45 1 4.944621156481945 3.9300000000000015 6.970753490836322 0 0 0
46 1 4.944621156481945 1.3099999999999992 6.970753490836322 0 0 0
52 1 2.720605884525795 3.523527408767168e-16 7.457647082477213 0 0 0
56 1 4.691150791720219 5.229280089735363e-18 9.24302618739267 0 0 0
2 2 6.789261903689987 3.530919299162697e-17 4.908735337397468 0 0 0
14 2 7.526182987281052 0 8.057037650414642 0 0 0
49 1 9.121836705782302 2.62 8.282324102462718 0 0 0
53 1 7.168636428438098 2.62 6.483859899195432 0 0 0
57 1 5.198091521243675 2.62 4.698480794279971 0 0 0
25 2 12.146906676693348 4.791159627949021e-17 5.5246935406016995 0 0 0
26 2 10.722335636270543 8.049844806747902e-17 8.416813441070945 0 0 0
42 1 11.434621156481944 2.62 6.970753490836321 0 0 0
107 1 9.378232894489159 3.950464418208875 5.978419165156663 0 0 0
108 1 9.378232894489159 1.2895355817911252 5.978419165156663 0 0 0
109 1 13.491009418474736 1.289535581791127 7.963087816515979 0 0 0
110 1 13.491009418474736 3.9504644182088735 7.963087816515979 0 0 0
1 2 16.079980409273904 1.0443975140673918e-16 9.032771644275176 0 0 0
13 2 15.343059325682841 0 5.884469331258001 0 0 0
50 1 13.74740560718159 2.62 5.659182879209927 0 0 0
54 1 15.700605884525787 2.62 7.457647082477213 0 0 0
58 1 17.671150791720216 2.62 9.243026187392676 0 0 0
4 2 19.769261903689987 2.62 4.908735337397468 0 0 0
16 2 20.506182987281054 2.62 8.057037650414642 0 0 0
43 1 17.924621156481948 1.3099999999999954 6.970753490836319 0 0 0
44 1 17.924621156481948 3.930000000000004 6.970753490836319 0 0 0
51 1 20.148636428438092 1.3959293901951988e-16 6.483859899195432 0 0 0
55 1 18.178091521243676 0 4.698480794279976 0 0 0
28 2 23.702335636270544 2.62 8.416813441070945 0 0 0
47 1 22.1018367057823 0 8.28232410246272 0 0 0
103 1 22.35823289448916 1.330464418208876 5.978419165156663 0 0 0
104 1 22.35823289448916 3.9095355817911246 5.978419165156663 0 0 0
22 2 -1.300268171774099 1.007030740441342e-16 9.96495590909812 0 0 0
34 2 -2.587177883177282 2.0550088217574415e-16 12.673667885752225 0 0 0
65 1 0.2827723239967856 2.62 10.206562096710565 0 0 0
77 1 -2.039676774163381 2.62 11.469253031525788 0 0 0
97 1 0.012402118625652478 3.967397113515685 12.499289713586972 0 0 0
98 1 0.012402118625652478 1.2726028864843144 12.499289713586972 0 0 0
10 2 1.8724338026817413 6.902705023868793e-17 10.417427283763411 0 0 0
38 2 2.544277406556069 0 13.580791763492554 0 0 0
61 1 2.2378320722299474 2.62 11.992352708719933 0 0 0
91 1 4.425495401887739 3.9105494701155057 11.504981135910347 0 0 0
92 1 4.42549540188774 1.3294505298844936 11.504981135910345 0 0 0
7 2 6.293616681047207 2.62 9.446560435102946 0 0 0
19 2 7.034236089997905 2.62 12.6109633788882 0 0 0
30 2 8.556864762609166 3.0501603392499205e-17 13.314531831623256 0 0 0
68 1 6.677395219588126 0 11.00203213797306 0 0 0
72 1 5.599564936319042 5.239999999999999 13.445911895268651 0 -1 0
83 1 8.873394533244301 3.9219009919551393 10.52522278902998 0 0 0
84 1 8.873394533244301 1.3180990080448605 10.52522278902998 0 0 0
24 2 11.679731828225904 2.62 9.96495590909812 0 0 0
36 2 10.39282211682272 2.62 12.673667885752227 0 0 0
63 1 13.262772323996785 0 10.206562096710565 0 0 0
75 1 10.940323225836618 0 11.469253031525788 0 0 0
101 1 12.992402118625655 1.347397113515685 12.499289713586972 0 0 0
102 1 12.992402118625655 3.8926028864843154 12.499289713586972 0 0 0
12 2 14.85243380268174 2.62 10.41742728376341 0 0 0
40 2 15.524277406556068 2.62 13.580791763492554 0 0 0
59 1 15.217832072229944 0 11.992352708719935 0 0 0
87 1 17.405495401887745 1.2905494701155127 11.504981135910345 0 0 0
88 1 17.405495401887745 3.9494505298844875 11.504981135910345 0 0 0
5 2 19.27361668104721 0 9.446560435102946 0 0 0
17 2 20.0142360899979 2.0922569749845436e-16 12.6109633788882 0 0 0
32 2 21.53686476260917 2.62 13.314531831623256 0 0 0
70 1 19.657395219588125 2.62 11.00203213797306 0 0 0
74 1 18.579564936319045 2.6199999999999997 13.445911895268651 0 0 0
79 1 21.853394533244302 1.3019009919551379 10.525222789029979 0 0 0
80 1 21.853394533244302 3.938099008044862 10.525222789029979 0 0 0

Velocities

81 0 0 0
82 0 0 0
6 0 0 0
18 0 0 0
31 0 0 0
69 0 0 0
73 0 0 0
11 0 0 0
39 0 0 0
60 0 0 0
89 0 0 0
90 0 0 0
23 0 0 0
35 0 0 0
64 0 0 0
76 0 0 0
99 0 0 0
100 0 0 0
8 0 0 0
20 0 0 0
29 0 0 0
67 0 0 0
71 0 0 0
85 0 0 0
86 0 0 0
9 0 0 0
37 0 0 0
62 0 0 0
93 0 0 0
94 0 0 0
21 0 0 0
33 0 0 0
66 0 0 0
78 0 0 0
95 0 0 0
96 0 0 0
27 0 0 0
41 0 0 0
48 0 0 0
105 0 0 0
106 0 0 0
3 0 0 0
15 0 0 0
45 0 0 0
46 0 0 0
52 0 0 0
56 0 0 0
2 0 0 0
14 0 0 0
49 0 0 0
53 0 0 0
57 0 0 0
25 0 0 0
26 0 0 0
42 0 0 0
107 0 0 0
108 0 0 0
109 0 0 0
110 0 0 0
1 0 0 0
13 0 0 0
50 0 0 0
54 0 0 0
58 0 0 0
4 0 0 0
16 0 0 0
43 0 0 0
44 0 0 0
51 0 0 0
55 0 0 0
28 0 0 0
47 0 0 0
103 0 0 0
104 0 0 0
22 0 0 0
34 0 0 0
65 0 0 0
77 0 0 0
97 0 0 0
98 0 0 0
10 0 0 0
38 0 0 0
61 0 0 0
91 0 0 0
92 0 0 0
7 0 0 0
19 0 0 0
30 0 0 0
68 0 0 0
72 0 0 0
83 0 0 0
84 0 0 0
24 0 0 0
36 0 0 0
63 0 0 0
75 0 0 0
101 0 0 0
102 0 0 0
12 0 0 0
40 0 0 0
59 0 0 0
87 0 0 0
88 0 0 0
5 0 0 0
17 0 0 0
32 0 0 0
70 0 0 0
74 0 0 0
79 0 0 0
80 0 0 0
