112
Lattice="10.88245969262 0.0 0.0 0.0 17.62103948887 0.0 0.0 0.0 31.826172329214" Properties=species:S:1:pos:R:3:forces:R:3:energies:R:1 energy=-208.70617472836184 stress="0.0003777075012539428 -4.227266744141234e-08 1.7428063360524798e-06 -4.227266744141234e-08 0.00047204235854697167 3.843372930195927e-06 1.7428063360524798e-06 3.843372930195927e-06 -6.288391824957792e-06" free_energy=-208.70617472836184 pbc="T T F"
Zn       4.07571922      11.01158380      19.48719663      -0.00567108       0.00359396       0.00087906      -0.45214338
Zn       4.07944711       2.21915126      19.46966479      -0.00875788       0.00069067      -0.01034037      -0.44797210
Zn       9.53982834      11.00950089      19.50143094      -0.01003996       0.00480322       0.00862612      -0.44647009
Zn       9.53710866       2.21603467      19.47990239      -0.00365059      -0.00858638      -0.00252298      -0.44490537
Zn       6.80301259      15.40188823      12.35650754       0.00875788      -0.00069067       0.01034037      -0.44797210
Zn       6.80674048       6.60945569      12.33897570       0.00567108      -0.00359396      -0.00087906      -0.45214338
Zn       1.34535104      15.40500482      12.34626994       0.00365059       0.00858638       0.00252298      -0.44490537
Zn       1.34263136       6.61153860      12.32474138       0.01003996      -0.00480322      -0.00862611      -0.44647009
Mg       6.81372068       9.38599617      19.50568624      -0.00534176       0.00447333      -0.00112803      -1.81505830
Mg       6.81388302       0.63783041      19.49936978      -0.00592257      -0.00657056      -0.00061886      -1.80322163
Mg       1.35989183       9.38411380      19.49341039       0.00644508       0.00923549       0.00807298      -1.81302705
Mg       1.35888407       0.63301629      19.48702489       0.00528441       0.00591110       0.00913489      -1.79995876
Mg       4.06737746      13.77769961      12.35358072       0.00480508      -0.01106115       0.00629288      -1.82135825
Mg       4.06962671       5.03136063      12.31113555       0.00522579      -0.00406766      -0.00553422      -1.80320035
Mg       9.52099836      13.77608777      12.36641808      -0.00299523      -0.01985023       0.00697447      -1.82201509
Mg       9.52323572       5.02611887      12.32314664      -0.00523392       0.00636314      -0.01545266      -1.80085131
Mg       9.52256786       8.23692569      12.33276194      -0.00644508      -0.00923548      -0.00807298      -1.81302705
Mg       4.06873901       8.23504332      12.32048609       0.00534176      -0.00447333       0.00112804      -1.81505830
Mg       9.52357562      16.98802320      12.33914744      -0.00528441      -0.00591110      -0.00913488      -1.79995876
Mg       4.06857668      16.98320908      12.32680254       0.00592257       0.00657056       0.00061886      -1.80322163
Mg       1.35922397      12.59492062      19.50302569       0.00523393      -0.00636314       0.01545266      -1.80085131
Mg       1.36146134       3.84495172      19.45975424       0.00299523       0.01985023      -0.00697447      -1.82201509
Mg       6.81283298      12.58967886      19.51503678      -0.00522579       0.00406766       0.00553423      -1.80320035
Mg       6.81508224       3.84333988      19.47259160      -0.00480508       0.01106115      -0.00629288      -1.82135825
Zn       5.54341625       6.60999723      18.88939640       0.01377896      -0.00051756       0.01775437      -0.88457632
Zn       5.54220922      15.42619162      18.91572321      -0.01433652       0.00137434       0.01196252      -0.86594704
Zn       0.11291566       6.60858531      18.91109533       0.00120132      -0.00135518      -0.00268519      -0.87889680
Zn       0.11910651      15.42324410      18.92700974      -0.03146879       0.00206574      -0.00341635      -0.86218324
Zn       5.33904345      11.01104226      12.93677593      -0.01377896       0.00051756      -0.01775437      -0.88457632
Zn       5.34025047       2.19484787      12.91044911       0.01433652      -0.00137434      -0.01196252      -0.86594704
Zn      10.76954403      11.01245418      12.91507699      -0.00120132       0.00135518       0.00268519      -0.87889680
Zn      10.76335318       2.19779539      12.89916259       0.03146879      -0.00206574       0.00341635      -0.86218324
Zn       8.25861022      11.01247448      12.91922328      -0.00423789       0.00065968       0.00324034      -0.87907528
Zn       2.82492820      11.01292277      12.92111404       0.00119081       0.00055280       0.00370880      -0.88076398
Zn       8.26319288       2.19399030      12.89583044      -0.03115664      -0.00093435       0.00409574      -0.86276310
Zn       2.83685704       2.19485748      12.90032400      -0.03335234       0.00433969       0.01025883      -0.86250135
Zn       2.61926682      15.42704919      18.93034189       0.03115665       0.00093435      -0.00409574      -0.86276310
Zn       2.62384948       6.60856501      18.90694905       0.00423789      -0.00065968      -0.00324035      -0.87907528
Zn       8.04560265      15.42618201      18.92584833       0.03335234      -0.00433969      -0.01025883      -0.86250135
Zn       8.05753149       6.60811672      18.90505829      -0.00119081      -0.00055280      -0.00370880      -0.88076398
Zn       4.08952521       8.76933786      18.28375902      -0.01239219      -0.00431072       0.00103529      -1.11901907
Zn       4.08593406      17.59292664      18.27787347      -0.00688889      -0.00366657       0.01263948      -1.11416530
Zn       9.52685155       8.76690223      18.30879341      -0.00498957      -0.00793493      -0.00266845      -1.12399918
Zn       9.52569034      17.58625821      18.29952734      -0.00324583       0.00087978       0.00947903      -1.11725208
Zn       6.78965985      13.16595258      13.57630093       0.01585563       0.01152968      -0.00957406      -1.12087735
Zn       6.79677074       4.36479033      13.53271071       0.00707718      -0.00157051      -0.01176675      -1.11318175
Zn       1.35401617      13.16746403      13.55049949       0.00576067       0.00417780      -0.00509522      -1.12533313
Zn       1.35713252       4.36697145      13.50901364       0.00736249      -0.01273851      -0.01117546      -1.11727949
Zn       6.79293449       8.85170163      13.54241331       0.01239219       0.00431072      -0.00103529      -1.11901907
Zn       1.35560814       8.85413726      13.51737892       0.00498957       0.00793493       0.00266845      -1.12399918
Zn       6.79652564       0.02811285      13.54829886       0.00688889       0.00366657      -0.01263948      -1.11416530
Zn       1.35676936       0.03478128      13.52664499       0.00324583      -0.00087978      -0.00947903      -1.11725208
Zn       4.08568895      13.25624916      18.29346162      -0.00707718       0.00157051       0.01176675      -1.11318175
Zn       4.09279985       4.45508691      18.24987140      -0.01585563      -0.01152967       0.00957406      -1.12087735
Zn       9.52532718      13.25406804      18.31715869      -0.00736249       0.01273851       0.01117546      -1.11727949
Zn       9.52844352       4.45357546      18.27567284      -0.00576067      -0.00417780       0.00509522      -1.12533313
Zn       8.12371659      10.99847323      17.29474786       0.00859907       0.00797716       0.01353507      -1.19723390
Zn       8.12813168       2.21624230      17.26775672      -0.00980793      -0.00780362       0.00211073      -1.19690673
Zn       2.67853479      10.99944886      17.26852646       0.00850589       0.00898172      -0.00280371      -1.18450582
Zn       2.68395700       2.21650732      17.24311659      -0.00076791      -0.00460238      -0.00646262      -1.18530901
Zn       2.75432802      15.40479719      14.55841561       0.00980793       0.00780362      -0.00211073      -1.19690673
Zn       2.75874311       6.62256626      14.53142447      -0.00859908      -0.00797716      -0.01353508      -1.19723390
Zn       8.19850269      15.40453217      14.58305573       0.00076791       0.00460238       0.00646262      -1.18530901
Zn       8.20392491       6.62159063      14.55764586      -0.00850589      -0.00898172       0.00280371      -1.18450582
Zn      10.83562849       6.62302360      14.54234913       0.00154503      -0.00879627      -0.00507332      -1.19959027
Zn       5.39310678       6.62072376      14.53910785       0.01683932      -0.00824712       0.00093440      -1.19256162
Zn      10.83746357      15.40502545      14.56981621      -0.00606854       0.00855463      -0.00307818      -1.19876543
Zn       5.39620450      15.40620956      14.56396989      -0.00280490       0.00377381       0.01652411      -1.19341710
Zn       0.04683120      10.99801589      17.28382320      -0.00154503       0.00879627       0.00507332      -1.19959027
Zn       0.04499612       2.21601404      17.25635612       0.00606854      -0.00855463       0.00307818      -1.19876543
Zn       5.48935292      11.00031573      17.28706447      -0.01683932       0.00824712      -0.00093440      -1.19256162
Zn       5.48625519       2.21482993      17.26220244       0.00280490      -0.00377381      -0.01652411      -1.19341710
Mg       6.79458559       4.97059760      16.56328115       0.01220476       0.00360667       0.00594733      -1.61104231
Mg       6.79005852      13.76905380      16.61776196       0.01400219       0.00614562      -0.00872700      -1.61262719
Mg       1.36554667       4.97331672      16.55045230       0.00044333      -0.00436169       0.00622334      -1.60985120
Mg       1.36572138      13.77601327      16.60598002      -0.00099884      -0.01089885      -0.00874705      -1.61116829
Mg       4.08767952       9.36667162      15.23780214      -0.01074669       0.00889144       0.00291979      -1.61328577
Mg       4.08915201       0.55379521      15.22888104      -0.00912012       0.00709257      -0.00004209      -1.61276380
Mg       9.51789375       9.37152440      15.24857107       0.00007658      -0.00430571       0.00362763      -1.61163404
Mg       9.51528876       0.55595662      15.24083740       0.00547536      -0.00399813       0.00207850      -1.61103132
Mg       9.51691302      12.64772277      15.27572003      -0.00044333       0.00436169      -0.00622334      -1.60985120
Mg       4.08787410      12.65044189      15.26289118      -0.01220476      -0.00360667      -0.00594733      -1.61104231
Mg       9.51673831       3.84502622      15.22019231       0.00099884       0.01089885       0.00874705      -1.61116829
Mg       4.09240117       3.85198569      15.20841037      -0.01400219      -0.00614562       0.00872700      -1.61262719
Mg       1.36717093      17.06508287      16.58533493      -0.00547536       0.00399813      -0.00207850      -1.61103132
Mg       1.36456594       8.24951509      16.57760126      -0.00007658       0.00430571      -0.00362763      -1.61163404
Mg       6.79330768      17.06724428      16.59729129       0.00912012      -0.00709257       0.00004209      -1.61276380
Mg       6.79478018       8.25436787      16.58837019       0.01074669      -0.00889144      -0.00291979      -1.61328577
Zn       4.07014864       6.61845789      16.70899026      -0.00648574       0.00092996       0.01141302      -1.23078580
Zn       4.07046735      15.42153227      16.73701014      -0.00508534      -0.00306566       0.00412479      -1.23120276
Zn       9.53530997       6.61374735      16.72860834      -0.01078606       0.00690368      -0.00755472      -1.22612186
Zn       9.53081134      15.41364254      16.75406156      -0.01023083       0.00557572       0.00632410      -1.22722540
Zn       6.81231105      11.00258160      15.11718207       0.00648574      -0.00092996      -0.01141302      -1.23078580
Zn       6.81199235       2.19950722      15.08916219       0.00508535       0.00306566      -0.00412479      -1.23120276
Zn       1.34714973      11.00729214      15.09756399       0.01078606      -0.00690368       0.00755472      -1.22612186
Zn       1.35164835       2.20739695      15.07211077       0.01023083      -0.00557572      -0.00632410      -1.22722540
O        6.75611487      10.98192755      20.71442046      -0.00347424       0.01552920      -0.01342986      -7.74676953
O        6.76060190       2.25566581      20.68568188      -0.00457170      -0.02446799      -0.00022687      -7.74811254
O        1.51283118      10.98293874      20.69749797       0.00344460       0.01863127      -0.02424003      -7.75005977
O        1.50041026       2.25717832      20.66682608       0.00809745      -0.04663285      -0.00210419      -7.75169786
O        4.12185780      15.36537368      11.14049045       0.00457170       0.02446800       0.00022687      -7.74811254
O        4.12634483       6.63911194      11.11175187       0.00347424      -0.01552920       0.01342985      -7.74676953
O        9.38204943      15.36386117      11.15934625      -0.00809746       0.04663286       0.00210419      -7.75169786
O        9.36962851       6.63810075      11.12867436      -0.00344460      -0.01863126       0.02424002      -7.75005977
H        6.76873327      10.97732567      21.68644395       0.00420574       0.00217350       0.00941852      -3.45219388
H        6.76670181       2.27774595      21.65740052       0.00516359      -0.02047479       0.01943917      -3.45078149
H        1.50306281      10.97776762      21.66987700      -0.00183891       0.00315054       0.01180693      -3.44998605
H        1.50167019       2.27769721      21.63875519      -0.00420184      -0.01830409       0.02682839      -3.44846047
H        4.11575789      15.34329354      10.16877181      -0.00516359       0.02047479      -0.01943918      -3.45078149
H        4.11372643       6.64371382      10.13972838      -0.00420574      -0.00217350      -0.00941852      -3.45219388
H        9.38078950      15.34334228      10.18741714       0.00420184       0.01830409      -0.02682839      -3.44846047
H        9.37939688       6.64327187      10.15629533       0.00183891      -0.00315054      -0.01180693      -3.44998605
