(written by ASE)

9 atoms
2 atom types

0.0      4.6420000000000003  xlo xhi
0.0      4.0200899243673645  ylo yhi
0.0      6.5289999999999999  zlo zhi
    -2.3209999999999993                       0                       0  xy xz yz

Atoms # atomic

     1   1  2.9854939853635191e-16      1.3329010153232435                       0
     2   1      1.1666738600000006      3.3536394167057426       4.352666666666666
     3   1     -1.1666738599999993      3.3536394167057426       2.176333333333333
     4   1      2.3210000000000006      2.6871889090441208                       0
     5   1      1.1543261400000002     0.66645050766162173       4.352666666666666
     6   1      3.4876738600000001     0.66645050766162162       2.176333333333333
     7   2      2.3210000000000002 -8.2302802977216575e-17                       0
     8   2     -1.1604999999999996      2.0100449621836822       4.352666666666666
     9   2      1.1605000000000005      2.0100449621836822       2.176333333333333
