LAMMPS (2 Aug 2023 - Update 2)
OMP_NUM_THREADS environment is not set. Defaulting to 1 thread. (src/comm.cpp:98)
  using 1 OpenMP thread(s) per MPI task
Reading data file ...
  triclinic box = (0 0 0) to (38.954501 19.08373 37.336259) with tilt (-15.5818 0 0)
WARNING: Triclinic box skew is large. LAMMPS will run inefficiently. (src/domain.cpp:220)
  1 by 1 by 1 MPI processor grid
  reading atoms ...
  936 atoms
  reading velocities ...
  936 velocities
  read_data CPU = 0.019 seconds
Neighbor list info ...
  update: every = 1 steps, delay = 0 steps, check = yes
  max neighbors/atom: 2000, page size: 100000
  master list distance cutoff = 8
  ghost atom cutoff = 8
  binsize = 4, bins = 14 5 10
  2 neighbor lists, perpetual/occasional/extra = 2 0 0
  (1) pair meam, perpetual
      attributes: full, newton on
      pair build: full/bin/atomonly
      stencil: full/bin/3d
      bin: standard
  (2) pair meam, perpetual, half/full from (1)
      attributes: half, newton on
      pair build: halffull/newton
      stencil: none
      bin: none
Setting up cg style minimization ...
  Unit style    : metal
  Current step  : 0
WARNING: Energy due to 3 extra global DOFs will be included in minimizer energies
 (src/min.cpp:228)
Per MPI rank memory allocation (min/avg/max) = 11.79 | 11.79 | 11.79 Mbytes
   Step         PotEng         TotEng          Fmax          Press          Volume    
         0  -994.69608     -994.69608      0.49894393    -9149.4974      27755.67     
        10  -995.01848     -995.01848      0.49646055    -8772.1721      27700.713    
        20  -995.32466     -995.32466      0.4939349     -8389.6645      27645.836    
        30  -995.61442     -995.61442      0.49136659    -8001.938       27591.041    
        40  -995.8876      -995.8876       0.48875517    -7608.9571      27536.33     
        50  -996.144       -996.144        0.48610054    -7210.6905      27481.707    
        60  -996.38345     -996.38345      0.48340213    -6807.1098      27427.173    
        70  -996.60576     -996.60576      0.48065985    -6398.196       27372.733    
        80  -996.81075     -996.81075      0.47787332    -5983.9312      27318.391    
        90  -996.99825     -996.99825      0.47504228    -5564.3176      27264.152    
       100  -997.16808     -997.16808      0.47216681    -5139.3609      27210.025    
       110  -997.32007     -997.32007      0.46924661    -4709.0905      27156.017    
       120  -997.45405     -997.45405      0.46874849    -4273.5688      27102.142    
       130  -997.56987     -997.56987      0.47388316    -3832.8982      27048.415    
       140  -997.66738     -997.66738      0.47904718    -3387.2511      26994.862    
       150  -997.74649     -997.74649      0.4842362     -2936.9368      26941.519    
       160  -997.80712     -997.80712      0.48944232    -2482.5148      26888.454    
       170  -997.84932     -997.84932      0.49464862    -2025.1675      26835.798    
       180  -997.87356     -997.87356      0.49980292    -1568.2679      26783.919    
       190  -997.90142     -997.90142      0.50255274    -1212.657       26743.846    
       200  -997.95185     -997.95185      0.49948928    -1209.3823      26743.047    
       210  -998.00424     -998.00424      0.49623375    -1212.1855      26742.917    
       220  -998.06712     -998.06712      0.49233256    -1215.1143      26742.724    
       230  -998.16021     -998.16021      0.48655135    -1220.1888      26742.543    
       240  -998.24875     -998.24875      0.48127452    -1205.3708      26740.208    
       250  -998.28486     -998.28486      0.47903948    -1207.1362      26740.134    
       260  -998.32243     -998.32243      0.47671756    -1208.743       26740.035    
       270  -998.36191     -998.36191      0.4742793     -1210.3386      26739.927    
       280  -998.40394     -998.40394      0.4716853     -1211.9384      26739.806    
       290  -998.44947     -998.44947      0.4688779     -1213.5616      26739.67     
       300  -998.5         -998.5          0.46576428    -1215.2369      26739.513    
       310  -998.5583      -998.5583       0.46217392    -1217.0139      26739.326    
       320  -998.63081     -998.63081      0.45771264    -1219.0043      26739.086    
       330  -998.74361     -998.74361      0.45077621    -1221.6296      26738.697    
       340  -999.04464     -999.04464      0.43233731    -1203.4846      26735.08     
       350  -999.07145     -999.07145      0.43069568    -1203.8313      26734.995    
       360  -999.09835     -999.09835      0.4290474     -1204.2474      26734.921    
       370  -999.12536     -999.12536      0.42739262    -1204.6192      26734.844    
       380  -999.15249     -999.15249      0.42573076    -1204.9476      26734.765    
       390  -999.17973     -999.17973      0.42406144    -1205.2329      26734.684    
       400  -999.2071      -999.2071       0.42238458    -1205.4757      26734.6      
       410  -999.23459     -999.23459      0.42070031    -1205.676       26734.515    
       420  -999.26219     -999.26219      0.41900901    -1205.8343      26734.427    
       430  -999.28989     -999.28989      0.41731125    -1205.9509      26734.338    
       440  -999.31768     -999.31768      0.41560777    -1206.0258      26734.246    
       450  -999.34554     -999.34554      0.4138996     -1206.0593      26734.154    
       460  -999.37344     -999.37344      0.41218796    -1206.0516      26734.059    
       470  -999.40137     -999.40137      0.41047426    -1206.0031      26733.964    
       480  -999.4293      -999.4293       0.40876006    -1205.9145      26733.867    
       490  -999.45721     -999.45721      0.40704705    -1205.786       26733.77     
       500  -999.48505     -999.48505      0.40533698    -1205.6184      26733.672    
       510  -999.51279     -999.51279      0.40363166    -1205.4126      26733.573    
       520  -999.54042     -999.54042      0.40193296    -1205.1697      26733.473    
       530  -999.56789     -999.56789      0.40024275    -1204.8907      26733.374    
       540  -999.59518     -999.59518      0.39856287    -1204.5769      26733.274    
       550  -999.62225     -999.62225      0.39689509    -1204.2297      26733.175    
       560  -999.64908     -999.64908      0.39524104    -1203.8505      26733.076    
       570  -999.67564     -999.67564      0.39360222    -1203.4405      26732.977    
       580  -999.70191     -999.70191      0.39198       -1203.0012      26732.878    
       590  -999.72788     -999.72788      0.39037559    -1202.5341      26732.78     
       600  -999.75351     -999.75351      0.38879007    -1202.0408      26732.683    
       610  -999.7788      -999.7788       0.38722431    -1201.5233      26732.587    
       620  -999.80374     -999.80374      0.38567898    -1200.9833      26732.492    
       630  -999.82831     -999.82831      0.38415459    -1200.4223      26732.398    
       640  -999.85252     -999.85252      0.38265145    -1199.8418      26732.305    
       650  -999.87635     -999.87635      0.38116972    -1199.243       26732.213    
       660  -999.89981     -999.89981      0.37970947    -1198.6272      26732.123    
       670  -999.9229      -999.9229       0.37827064    -1197.9958      26732.033    
       680  -999.94563     -999.94563      0.37685308    -1197.3499      26731.945    
       690  -999.96799     -999.96799      0.37545652    -1196.6908      26731.858    
       700  -999.98999     -999.98999      0.37408062    -1196.0196      26731.772    
       710  -1000.0116     -1000.0116      0.37272496    -1195.3372      26731.688    
       720  -1000.0329     -1000.0329      0.37138903    -1194.6446      26731.605    
       730  -1000.0539     -1000.0539      0.37007229    -1193.9425      26731.523    
       740  -1000.0746     -1000.0746      0.36877417    -1193.2315      26731.442    
       750  -1000.0949     -1000.0949      0.36749408    -1192.5125      26731.363    
       760  -1000.1149     -1000.1149      0.36623141    -1191.7859      26731.284    
       770  -1000.1347     -1000.1347      0.36498553    -1191.0526      26731.207    
       780  -1000.1541     -1000.1541      0.3637558     -1190.3128      26731.132    
       790  -1000.1733     -1000.1733      0.36254159    -1189.567       26731.057    
       800  -1000.1922     -1000.1922      0.36134221    -1188.8156      26730.983    
       810  -1000.2109     -1000.2109      0.36015703    -1188.0586      26730.911    
       820  -1000.2293     -1000.2293      0.3589854     -1187.2964      26730.839    
       830  -1000.2475     -1000.2475      0.35782672    -1186.5292      26730.769    
       840  -1000.2655     -1000.2655      0.35668037    -1185.7571      26730.7      
       850  -1000.2832     -1000.2832      0.35554574    -1184.9804      26730.631    
       860  -1000.3008     -1000.3008      0.35442226    -1184.1994      26730.564    
       870  -1000.3181     -1000.3181      0.35330931    -1183.4142      26730.497    
       880  -1000.3353     -1000.3353      0.35220634    -1182.6249      26730.432    
       890  -1000.3523     -1000.3523      0.35111275    -1181.8315      26730.367    
       900  -1000.3691     -1000.3691      0.35002796    -1181.0342      26730.304    
       910  -1000.3858     -1000.3858      0.34895141    -1180.2328      26730.241    
       920  -1000.4023     -1000.4023      0.34788258    -1179.4275      26730.179    
       930  -1000.4187     -1000.4187      0.34682093    -1178.6182      26730.117    
       940  -1000.435      -1000.435       0.34576595    -1177.8049      26730.057    
       950  -1000.4511     -1000.4511      0.34471713    -1176.9875      26729.997    
       960  -1000.4671     -1000.4671      0.34367395    -1176.166       26729.939    
       970  -1000.483      -1000.483       0.34263592    -1175.3402      26729.88     
       980  -1000.4988     -1000.4988      0.34160254    -1174.5101      26729.823    
       990  -1000.5146     -1000.5146      0.34057328    -1173.6754      26729.766    
      1000  -1000.5302     -1000.5302      0.33954766    -1172.836       26729.71     
      1010  -1000.5457     -1000.5457      0.33852519    -1171.9917      26729.655    
      1020  -1000.5612     -1000.5612      0.33750539    -1171.1423      26729.6      
      1030  -1000.5766     -1000.5766      0.33648778    -1170.2877      26729.546    
      1040  -1000.592      -1000.592       0.33547186    -1169.4278      26729.493    
      1050  -1000.6073     -1000.6073      0.33445715    -1168.5625      26729.44     
      1060  -1000.6225     -1000.6225      0.33344314    -1167.6915      26729.388    
      1070  -1000.6377     -1000.6377      0.33242934    -1166.8148      26729.337    
      1080  -1000.6529     -1000.6529      0.33141523    -1165.932       26729.286    
      1090  -1000.6681     -1000.6681      0.33040028    -1165.0431      26729.236    
      1100  -1000.6832     -1000.6832      0.32938396    -1164.1476      26729.186    
      1110  -1000.6984     -1000.6984      0.32836573    -1163.2453      26729.137    
      1120  -1000.7135     -1000.7135      0.32734504    -1162.3358      26729.089    
      1130  -1000.7287     -1000.7287      0.32632132    -1161.4187      26729.041    
      1140  -1000.7439     -1000.7439      0.32529398    -1160.4935      26728.994    
      1150  -1000.759      -1000.759       0.32426242    -1159.5601      26728.948    
      1160  -1000.7743     -1000.7743      0.323226      -1158.6178      26728.902    
      1170  -1000.7895     -1000.7895      0.32218408    -1157.6662      26728.857    
      1180  -1000.8049     -1000.8049      0.32113592    -1156.7047      26728.812    
      1190  -1000.8202     -1000.8202      0.32008079    -1155.7328      26728.768    
      1200  -1000.8357     -1000.8357      0.31901791    -1154.7497      26728.724    
      1210  -1000.8512     -1000.8512      0.31794646    -1153.7548      26728.682    
      1220  -1000.8668     -1000.8668      0.31686555    -1152.7474      26728.639    
      1230  -1000.8826     -1000.8826      0.31577424    -1151.7268      26728.598    
      1240  -1000.8984     -1000.8984      0.31467151    -1150.6922      26728.557    
      1250  -1000.9144     -1000.9144      0.3135563     -1149.6429      26728.516    
      1260  -1000.9305     -1000.9305      0.31242742    -1148.5778      26728.477    
      1270  -1000.9468     -1000.9468      0.31128356    -1147.4959      26728.438    
      1280  -1000.9632     -1000.9632      0.31012332    -1146.3959      26728.4      
      1290  -1000.9799     -1000.9799      0.30894518    -1145.2764      26728.362    
      1300  -1000.9967     -1000.9967      0.30774743    -1144.1357      26728.326    
      1310  -1001.0138     -1001.0138      0.3065282     -1142.9721      26728.29     
      1320  -1001.0312     -1001.0312      0.30528535    -1141.7834      26728.255    
      1330  -1001.0489     -1001.0489      0.30401651    -1140.5677      26728.221    
      1340  -1001.0669     -1001.0669      0.30271896    -1139.3224      26728.187    
      1350  -1001.0852     -1001.0852      0.30138956    -1138.0446      26728.155    
      1360  -1001.104      -1001.104       0.30002473    -1136.731       26728.124    
      1370  -1001.1232     -1001.1232      0.29862032    -1135.3778      26728.093    
      1380  -1001.1429     -1001.1429      0.29717144    -1133.9804      26728.064    
      1390  -1001.1633     -1001.1633      0.29567228    -1132.5328      26728.037    
      1400  -1001.1842     -1001.1842      0.29411574    -1131.0316      26728.011    
      1410  -1001.206      -1001.206       0.29249378    -1129.5039      26727.991    
      1420  -1001.2274     -1001.2274      0.29087091    -1130.3309      26728.232    
      1430  -1001.2433     -1001.2433      0.28960908    -1135.3079      26728.898    
      1440  -1001.2568     -1001.2568      0.28858367    -1135.4569      26729.013    
      1450  -1001.2701     -1001.2701      0.28757112    -1134.4238      26728.997    
      1460  -1001.2836     -1001.2836      0.28654612    -1133.1528      26728.957    
      1470  -1001.2972     -1001.2972      0.28550358    -1131.8668      26728.919    
      1480  -1001.3111     -1001.3111      0.28444133    -1130.55        26728.88     
      1490  -1001.3251     -1001.3251      0.28335665    -1129.2009      26728.842    
      1500  -1001.3395     -1001.3395      0.28224639    -1127.8147      26728.803    
      1510  -1001.3542     -1001.3542      0.28110679    -1126.3868      26728.764    
      1520  -1001.3692     -1001.3692      0.27993331    -1124.911       26728.725    
      1530  -1001.3847     -1001.3847      0.27872032    -1123.3798      26728.685    
      1540  -1001.4007     -1001.4007      0.27746075    -1121.7837      26728.644    
      1550  -1001.4173     -1001.4173      0.27614544    -1120.111       26728.603    
      1560  -1001.4347     -1001.4347      0.27476215    -1118.3426      26728.561    
      1570  -1001.453      -1001.453       0.2732944     -1116.5263      26728.525    
      1580  -1001.4719     -1001.4719      0.27176263    -1115.9996      26728.64     
      1590  -1001.4871     -1001.4871      0.27046642    -1121.8187      26729.426    
      1600  -1001.499      -1001.499       0.26947983    -1122.883       26729.656    
      1610  -1001.5108     -1001.5108      0.26851608    -1121.9514      26729.665    
      1620  -1001.5226     -1001.5226      0.26754435    -1120.6696      26729.639    
      1630  -1001.5346     -1001.5346      0.26655933    -1119.3879      26729.614    
      1640  -1001.5467     -1001.5467      0.26555975    -1118.0819      26729.59     
      1650  -1001.5589     -1001.5589      0.26454385    -1116.752       26729.566    
      1660  -1001.5713     -1001.5713      0.26350969    -1115.3952      26729.542    
      1670  -1001.5839     -1001.5839      0.26245502    -1114.0085      26729.518    
      1680  -1001.5967     -1001.5967      0.26137725    -1112.5884      26729.495    
      1690  -1001.6098     -1001.6098      0.26027336    -1111.1306      26729.472    
      1700  -1001.6231     -1001.6231      0.25913971    -1109.6302      26729.449    
      1710  -1001.6368     -1001.6368      0.25797192    -1108.0812      26729.427    
      1720  -1001.6508     -1001.6508      0.25676463    -1106.4762      26729.405    
      1730  -1001.6654     -1001.6654      0.25551115    -1104.8064      26729.383    
      1740  -1001.6804     -1001.6804      0.25420291    -1103.0569      26729.361    
      1750  -1001.6962     -1001.6962      0.25282811    -1101.2552      26729.343    
      1760  -1001.7123     -1001.7123      0.25139993    -1100.8946      26729.492    
      1770  -1001.725      -1001.725       0.25019613    -1107.4966      26730.376    
      1780  -1001.7356     -1001.7356      0.24924762    -1108.2627      26730.587    
      1790  -1001.7461     -1001.7461      0.24830572    -1107.2403      26730.602    
      1800  -1001.7567     -1001.7567      0.2473571     -1105.9436      26730.589    
      1810  -1001.7674     -1001.7674      0.24639836    -1104.6493      26730.579    
      1820  -1001.7781     -1001.7781      0.24542868    -1103.3364      26730.569    
      1830  -1001.7889     -1001.7889      0.24444692    -1102.0055      26730.559    
      1840  -1001.7998     -1001.7998      0.24345181    -1100.6546      26730.55     
      1850  -1001.8108     -1001.8108      0.24244199    -1099.2817      26730.542    
      1860  -1001.822      -1001.822       0.24141586    -1097.8848      26730.534    
      1870  -1001.8333     -1001.8333      0.24037168    -1096.4612      26730.527    
      1880  -1001.8447     -1001.8447      0.23930745    -1095.0084      26730.521    
      1890  -1001.8563     -1001.8563      0.23822093    -1093.523       26730.515    
      1900  -1001.8682     -1001.8682      0.23710947    -1092.0014      26730.51     
      1910  -1001.8802     -1001.8802      0.23597003    -1090.4393      26730.506    
      1920  -1001.8926     -1001.8926      0.23479895    -1088.8314      26730.503    
      1930  -1001.9052     -1001.9052      0.23359186    -1087.1718      26730.501    
      1940  -1001.9182     -1001.9182      0.23234338    -1085.4503      26730.499    
      1950  -1001.9316     -1001.9316      0.23104643    -1083.6975      26730.503    
      1960  -1001.9453     -1001.9453      0.22970502    -1083.0439      26730.636    
      1970  -1001.9566     -1001.9566      0.22852983    -1090.0667      26731.583    
      1980  -1001.9661     -1001.9661      0.2275825     -1091.0812      26731.84     
      1990  -1001.9757     -1001.9757      0.22663025    -1090.0109      26731.871    
      2000  -1001.9854     -1001.9854      0.22567232    -1088.6618      26731.872    
      2010  -1001.995      -1001.995       0.22470632    -1087.3219      26731.877    
      2020  -1002.0048     -1002.0048      0.22373177    -1085.9663      26731.883    
      2030  -1002.0146     -1002.0146      0.22274785    -1084.5966      26731.889    
      2040  -1002.0244     -1002.0244      0.22175373    -1083.2111      26731.896    
      2050  -1002.0343     -1002.0343      0.22074852    -1081.8085      26731.904    
      2060  -1002.0443     -1002.0443      0.21973125    -1080.3875      26731.912    
      2070  -1002.0543     -1002.0543      0.21870086    -1078.9466      26731.922    
      2080  -1002.0644     -1002.0644      0.21765621    -1077.484       26731.932    
      2090  -1002.0747     -1002.0747      0.21659599    -1075.9979      26731.944    
      2100  -1002.085      -1002.085       0.21551881    -1074.4861      26731.957    
      2110  -1002.0955     -1002.0955      0.21442308    -1072.9466      26731.97     
      2120  -1002.1061     -1002.1061      0.21330705    -1071.3763      26731.985    
      2130  -1002.1168     -1002.1168      0.21216869    -1069.7737      26732.002    
      2140  -1002.1277     -1002.1277      0.21100582    -1068.1287      26732.019    
      2150  -1002.1389     -1002.1389      0.20981534    -1066.4819      26732.041    
      2160  -1002.1502     -1002.1502      0.20859675    -1065.0241      26732.091    
      2170  -1002.1607     -1002.1607      0.207406      -1068.5133      26732.677    
      2180  -1002.1698     -1002.1698      0.20638517    -1071.5243      26733.183    
      2190  -1002.179      -1002.179       0.20537758    -1070.9516      26733.297    
      2200  -1002.1882     -1002.1882      0.20436261    -1069.4167      26733.307    
      2210  -1002.1975     -1002.1975      0.20333818    -1067.9718      26733.33     
      2220  -1002.2068     -1002.2068      0.20230508    -1066.4972      26733.352    
      2230  -1002.2161     -1002.2161      0.20126243    -1065.0101      26733.376    
      2240  -1002.2255     -1002.2255      0.2002095     -1063.5057      26733.401    
      2250  -1002.2349     -1002.2349      0.19914554    -1061.9837      26733.426    
      2260  -1002.2444     -1002.2444      0.19806974    -1060.4426      26733.453    
      2270  -1002.2539     -1002.2539      0.19698124    -1058.8812      26733.482    
      2280  -1002.2635     -1002.2635      0.19587912    -1057.2979      26733.511    
      2290  -1002.2732     -1002.2732      0.19476238    -1055.6912      26733.542    
      2300  -1002.283      -1002.283       0.19362995    -1054.0594      26733.574    
      2310  -1002.2928     -1002.2928      0.19248062    -1052.4009      26733.608    
      2320  -1002.3028     -1002.3028      0.19131313    -1050.7128      26733.644    
      2330  -1002.3129     -1002.3129      0.19012602    -1048.9964      26733.681    
      2340  -1002.323      -1002.323       0.18891792    -1047.23        26733.719    
      2350  -1002.3334     -1002.3334      0.18768575    -1045.552       26733.772    
      2360  -1002.3436     -1002.3436      0.18644019    -1045.3237      26733.987    
      2370  -1002.3528     -1002.3528      0.18527826    -1050.4748      26734.774    
      2380  -1002.3616     -1002.3616      0.1841939     -1050.7048      26735.011    
      2390  -1002.3709     -1002.3709      0.18306759    -1049.311       26735.08     
      2400  -1002.3801     -1002.3801      0.18192914    -1047.6025      26735.119    
      2410  -1002.3894     -1002.3894      0.18077915    -1045.9195      26735.164    
      2420  -1002.3988     -1002.3988      0.17961748    -1044.2081      26735.21     
      2430  -1002.4082     -1002.4082      0.17844329    -1042.4765      26735.258    
      2440  -1002.4177     -1002.4177      0.17725576    -1040.7209      26735.307    
      2450  -1002.4272     -1002.4272      0.17605405    -1038.9408      26735.358    
      2460  -1002.4368     -1002.4368      0.1748373     -1037.1342      26735.411    
      2470  -1002.4464     -1002.4464      0.17360462    -1035.2997      26735.466    
      2480  -1002.4562     -1002.4562      0.17235509    -1033.4355      26735.523    
      2490  -1002.466      -1002.466       0.17108772    -1031.54        26735.582    
      2500  -1002.4759     -1002.4759      0.16980139    -1029.6214      26735.644    
      2510  -1002.4858     -1002.4858      0.16849534    -1027.6748      26735.71     
      2520  -1002.4959     -1002.4959      0.16716815    -1025.7228      26735.781    
      2530  -1002.5061     -1002.5061      0.16582037    -1023.5647      26735.837    
      2540  -1002.5163     -1002.5163      0.1644498     -1023.251       26736.1      
      2550  -1002.5257     -1002.5257      0.16314655    -1026.768       26736.768    
      2560  -1002.535      -1002.535       0.16186809    -1027.1454      26737.091    
      2570  -1002.545      -1002.545       0.16051702    -1024.9359      26737.151    
      2580  -1002.5552     -1002.5552      0.15912526    -1022.8944      26737.24     
      2590  -1002.5655     -1002.5655      0.15771078    -1020.7189      26737.322    
      2600  -1002.5759     -1002.5759      0.15627126    -1018.5163      26737.41     
      2610  -1002.5864     -1002.5864      0.15480529    -1016.2571      26737.5      
      2620  -1002.5971     -1002.5971      0.153311      -1013.9472      26737.595    
      2630  -1002.6079     -1002.6079      0.15178663    -1011.5774      26737.692    
      2640  -1002.6189     -1002.6189      0.15023028    -1009.1442      26737.794    
      2650  -1002.63       -1002.63        0.14864009    -1006.6145      26737.897    
      2660  -1002.6413     -1002.6413      0.14701386    -1004.0263      26738.006    
      2670  -1002.6528     -1002.6528      0.14535006    -1001.3229      26738.115    
      2680  -1002.6645     -1002.6645      0.14364473    -998.72633      26738.25     
      2690  -1002.6762     -1002.6762      0.14191223    -997.02366      26738.494    
      2700  -1002.687      -1002.687       0.14025497    -1001.4264      26739.387    
      2710  -1002.6979     -1002.6979      0.13864579    -999.17472      26739.549    
      2720  -1002.7102     -1002.7102      0.13679529    -995.81469      26739.656    
      2730  -1002.7235     -1002.7235      0.1347862     -992.06466      26739.768    
      2740  -1002.7374     -1002.7374      0.13266733    -988.58708      26739.945    
      2750  -1002.7519     -1002.7519      0.13044848    -984.56724      26740.097    
      2760  -1002.7669     -1002.7669      0.12811996    -980.52636      26740.286    
      2770  -1002.7823     -1002.7823      0.12571001    -977.12764      26740.576    
      2780  -1002.797      -1002.797       0.12334305    -979.10856      26741.45     
      2790  -1002.8112     -1002.8112      0.12109215    -975.44565      26741.689    
      2800  -1002.8277     -1002.8277      0.11844879    -971.05267      26741.973    
      2810  -1002.8475     -1002.8475      0.11524594    -965.53599      26742.313    
      2820  -1002.8555     -1002.8555      0.11390308    -966.73292      26742.848    
      2830  -1002.8661     -1002.8661      0.11221342    -959.30638      26742.555    
      2840  -1002.8836     -1002.8836      0.10928825    -959.43235      26743.47     
      2850  -1002.907      -1002.907       0.10540179    -951.62001      26743.845    
      2860  -1002.9384     -1002.9384      0.10007976    -941.97534      26744.522    
      2870  -1002.9801     -1002.9801      0.09280331    -931.26366      26745.8      
      2880  -1003.0396     -1003.0396      0.090344948   -914.3568       26747.769    
      2890  -1003.1126     -1003.1126      0.08724117    -890.00169      26750.389    
      2900  -1003.2183     -1003.2183      0.081842695   -856.34684      26755.955    
      2904  -1003.2813     -1003.2813      0.077599174   -841.00855      26761.086    
Loop time of 36.075 on 1 procs for 2904 steps with 936 atoms

99.7% CPU use with 1 MPI tasks x 1 OpenMP threads

Minimization stats:
  Stopping criterion = linesearch alpha is zero
  Energy initial, next-to-last, final = 
      -994.69608106377  -1003.28131277998  -1003.28131277998
  Force two-norm initial, final = 235.78247 0.48398579
  Force max component initial, final = 168.25766 0.10367493
  Final line search alpha, max atom move = 1.4831374e-08 1.5376416e-09
  Iterations, force evaluations = 2904 2920

MPI task timing breakdown:
Section |  min time  |  avg time  |  max time  |%varavg| %total
---------------------------------------------------------------
Pair    | 35.912     | 35.912     | 35.912     |   0.0 | 99.55
Neigh   | 0.0029533  | 0.0029533  | 0.0029533  |   0.0 |  0.01
Comm    | 0.017292   | 0.017292   | 0.017292   |   0.0 |  0.05
Output  | 0.0058556  | 0.0058556  | 0.0058556  |   0.0 |  0.02
Modify  | 0          | 0          | 0          |   0.0 |  0.00
Other   |            | 0.1364     |            |       |  0.38

Nlocal:            936 ave         936 max         936 min
Histogram: 1 0 0 0 0 0 0 0 0 0
Nghost:           1712 ave        1712 max        1712 min
Histogram: 1 0 0 0 0 0 0 0 0 0
Neighs:          53056 ave       53056 max       53056 min
Histogram: 1 0 0 0 0 0 0 0 0 0
FullNghs:       106112 ave      106112 max      106112 min
Histogram: 1 0 0 0 0 0 0 0 0 0

Total # of neighbors = 106112
Ave neighs/atom = 113.36752
Neighbor list builds = 1
Dangerous builds = 0
Total wall time: 0:00:36
