LAMMPS (2 Aug 2023 - Update 2)
OMP_NUM_THREADS environment is not set. Defaulting to 1 thread. (src/comm.cpp:98)
  using 1 OpenMP thread(s) per MPI task
Reading data file ...
  orthogonal box = (0 0 0) to (17.420982 17.420983 66.879487)
  1 by 1 by 1 MPI processor grid
  reading atoms ...
  936 atoms
  reading velocities ...
  936 velocities
  read_data CPU = 0.055 seconds
Neighbor list info ...
  update: every = 1 steps, delay = 0 steps, check = yes
  max neighbors/atom: 2000, page size: 100000
  master list distance cutoff = 8
  ghost atom cutoff = 8
  binsize = 4, bins = 5 5 17
  2 neighbor lists, perpetual/occasional/extra = 2 0 0
  (1) pair meam, perpetual
      attributes: full, newton on
      pair build: full/bin/atomonly
      stencil: full/bin/3d
      bin: standard
  (2) pair meam, perpetual, half/full from (1)
      attributes: half, newton on
      pair build: halffull/newton
      stencil: none
      bin: none
Setting up cg style minimization ...
  Unit style    : metal
  Current step  : 0
WARNING: Energy due to 3 extra global DOFs will be included in minimizer energies
 (src/min.cpp:228)
Per MPI rank memory allocation (min/avg/max) = 12.16 | 12.16 | 12.16 Mbytes
   Step         PotEng         TotEng          Fmax          Press          Volume    
         0  -1028.075      -1028.075       0.51363493    -13069.162      20297.298    
        10  -1028.3965     -1028.3965      0.51057011    -12535.545      20256.904    
        20  -1028.7011     -1028.7011      0.50745674    -11994.447      20216.554    
        30  -1028.9888     -1028.9888      0.50429452    -11445.781      20176.249    
        40  -1029.2592     -1029.2592      0.50108293    -10889.45       20135.986    
        50  -1029.5123     -1029.5123      0.49782133    -10325.36       20095.766    
        60  -1029.7479     -1029.7479      0.49450923    -9753.4227      20055.587    
        70  -1029.9656     -1029.9656      0.49114623    -9173.5298      20015.449    
        80  -1030.1654     -1030.1654      0.48773169    -8585.5741      19975.35     
        90  -1030.347      -1030.347       0.4842646     -7989.4452      19935.288    
       100  -1030.5103     -1030.5103      0.4807443     -7385.0146      19895.261    
       110  -1030.6549     -1030.6549      0.47716983    -6772.1564      19855.267    
       120  -1030.7808     -1030.7808      0.47353975    -6150.7067      19815.302    
       130  -1030.8876     -1030.8876      0.46985217    -5520.4886      19775.36     
       140  -1030.9753     -1030.9753      0.46610433    -4881.261       19735.433    
       150  -1031.0434     -1031.0434      0.46229129    -4232.6837      19695.508    
       160  -1031.092      -1031.092       0.45840425    -3574.3555      19655.566    
       170  -1031.1206     -1031.1206      0.45443621    -2908.7943      19615.765    
       180  -1031.1489     -1031.1489      0.4480834     -2329.7746      19581.448    
       190  -1031.1694     -1031.1694      0.44537289    -2353.1492      19582.665    
       200  -1031.1903     -1031.1903      0.44235606    -2355.3096      19582.636    
       210  -1031.2128     -1031.2128      0.43908193    -2357.619       19582.606    
       220  -1031.2379     -1031.2379      0.43535581    -2360.1526      19582.572    
       230  -1031.2689     -1031.2689      0.43067819    -2363.1948      19582.53     
       240  -1031.3293     -1031.3293      0.42129086    -2368.8652      19582.444    
       250  -1031.4431     -1031.4431      0.40166355    -2248.2202      19574.634    
       260  -1031.4607     -1031.4607      0.39863582    -2249.6088      19574.606    
       270  -1031.4773     -1031.4773      0.39574061    -2250.8714      19574.579    
       280  -1031.4933     -1031.4933      0.39293009    -2252.0548      19574.552    
       290  -1031.5088     -1031.5088      0.39016945    -2253.1771      19574.526    
       300  -1031.524      -1031.524       0.38743091    -2254.252       19574.5      
       310  -1031.5391     -1031.5391      0.38469001    -2255.29        19574.474    
       320  -1031.5541     -1031.5541      0.38192344    -2256.3158      19574.448    
       330  -1031.5693     -1031.5693      0.37910594    -2257.3295      19574.422    
       340  -1031.5848     -1031.5848      0.37620862    -2258.3327      19574.395    
       350  -1031.6007     -1031.6007      0.3731956     -2259.3347      19574.368    
       360  -1031.6173     -1031.6173      0.37001829    -2260.3466      19574.338    
       370  -1031.6349     -1031.6349      0.36660442    -2261.3836      19574.306    
       380  -1031.6541     -1031.6541      0.3628335     -2262.4697      19574.271    
       390  -1031.676      -1031.676       0.35846775    -2263.651       19574.23     
       400  -1031.7037     -1031.7037      0.3528662     -2265.05        19574.177    
       410  -1031.7665     -1031.7665      0.33974239    -2267.8392      19574.051    
       420  -1031.8082     -1031.8082      0.33079049    -2279.9459      19574.58     
       430  -1031.8216     -1031.8216      0.32787887    -2286.9757      19574.936    
       440  -1031.8343     -1031.8343      0.32505995    -2287.3061      19574.904    
       450  -1031.8467     -1031.8467      0.32228779    -2287.6622      19574.876    
       460  -1031.8589     -1031.8589      0.3195461     -2287.9876      19574.848    
       470  -1031.8709     -1031.8709      0.3168212     -2288.2853      19574.82     
       480  -1031.8827     -1031.8827      0.31410076    -2288.5572      19574.792    
       490  -1031.8945     -1031.8945      0.31137319    -2288.8046      19574.764    
       500  -1031.9063     -1031.9063      0.30862693    -2289.0284      19574.735    
       510  -1031.9182     -1031.9182      0.30585013    -2289.2292      19574.705    
       520  -1031.9301     -1031.9301      0.30303004    -2289.407       19574.675    
       530  -1031.9422     -1031.9422      0.30015232    -2289.5618      19574.644    
       540  -1031.9545     -1031.9545      0.2972002     -2289.6928      19574.612    
       550  -1031.9671     -1031.9671      0.2941533     -2289.7989      19574.579    
       560  -1031.9801     -1031.9801      0.29098567    -2289.8779      19574.544    
       570  -1031.9936     -1031.9936      0.28766265    -2289.9267      19574.507    
       580  -1032.0079     -1032.0079      0.28413547    -2289.9407      19574.467    
       590  -1032.0231     -1032.0231      0.28033058    -2289.9123      19574.424    
       600  -1032.0397     -1032.0397      0.27612596    -2289.8287      19574.375    
       610  -1032.0587     -1032.0587      0.27128805    -2289.667       19574.318    
       620  -1032.0821     -1032.0821      0.26523091    -2288.9225      19574.219    
       630  -1032.1        -1032.1         0.26041367    -2263.7668      19572.709    
       640  -1032.11       -1032.11        0.25774546    -2262.0306      19572.586    
       650  -1032.1203     -1032.1203      0.25502848    -2261.8563      19572.556    
       660  -1032.1306     -1032.1306      0.25228458    -2261.5961      19572.52     
       670  -1032.141      -1032.141       0.24950707    -2261.3106      19572.485    
       680  -1032.1515     -1032.1515      0.24668772    -2260.9965      19572.448    
       690  -1032.1621     -1032.1621      0.24381734    -2260.6517      19572.409    
       700  -1032.1729     -1032.1729      0.24088548    -2260.2731      19572.37     
       710  -1032.1839     -1032.1839      0.2378798     -2259.8573      19572.329    
       720  -1032.1952     -1032.1952      0.23478549    -2259.3995      19572.286    
       730  -1032.2068     -1032.2068      0.23158418    -2258.8941      19572.241    
       740  -1032.2188     -1032.2188      0.22825239    -2258.3333      19572.193    
       750  -1032.2313     -1032.2313      0.22475892    -2257.7067      19572.143    
       760  -1032.2445     -1032.2445      0.2210604     -2257.0005      19572.088    
       770  -1032.2585     -1032.2585      0.21709314    -2256.1849      19572.027    
       780  -1032.2738     -1032.2738      0.21276271    -2255.8754      19571.997    
       790  -1032.286      -1032.286       0.20910031    -2232.2951      19570.61     
       800  -1032.2949     -1032.2949      0.20655679    -2230.6658      19570.51     
       810  -1032.3042     -1032.3042      0.20390021    -2229.8371      19570.457    
       820  -1032.3134     -1032.3134      0.20123494    -2229.1476      19570.413    
       830  -1032.3227     -1032.3227      0.1985554     -2228.4223      19570.367    
       840  -1032.332      -1032.332       0.19585814    -2227.6653      19570.321    
       850  -1032.3414     -1032.3414      0.19313958    -2226.8741      19570.273    
       860  -1032.3508     -1032.3508      0.19039606    -2226.0463      19570.224    
       870  -1032.3603     -1032.3603      0.1876238     -2225.1791      19570.173    
       880  -1032.3699     -1032.3699      0.18481889    -2224.2697      19570.121    
       890  -1032.3796     -1032.3796      0.18197713    -2223.3146      19570.067    
       900  -1032.3894     -1032.3894      0.17909401    -2222.3098      19570.012    
       910  -1032.3994     -1032.3994      0.17616468    -2221.2512      19569.954    
       920  -1032.4095     -1032.4095      0.17318381    -2220.1339      19569.894    
       930  -1032.4199     -1032.4199      0.17014555    -2218.9519      19569.831    
       940  -1032.4304     -1032.4304      0.16704335    -2217.6998      19569.765    
       950  -1032.4411     -1032.4411      0.16386966    -2216.3567      19569.696    
       960  -1032.4521     -1032.4521      0.16061886    -2215.2163      19569.64     
       970  -1032.4627     -1032.4627      0.15740154    -2202.4373      19568.905    
       980  -1032.471      -1032.471       0.15492333    -2193.6191      19568.4      
       990  -1032.4801     -1032.4801      0.15223209    -2191.335       19568.279    
      1000  -1032.4892     -1032.4892      0.14952502    -2190.0079      19568.214    
      1010  -1032.4985     -1032.4985      0.14680597    -2188.6018      19568.146    
      1020  -1032.5077     -1032.5077      0.14407307    -2187.1403      19568.076    
      1030  -1032.5171     -1032.5171      0.14132431    -2185.6444      19568.006    
      1040  -1032.5265     -1032.5265      0.13855712    -2184.0973      19567.934    
      1050  -1032.536      -1032.536       0.13600545    -2182.3778      19567.853    
      1060  -1032.5457     -1032.5457      0.13343551    -2180.5575      19567.768    
      1070  -1032.5554     -1032.5554      0.13084149    -2178.6582      19567.681    
      1080  -1032.5652     -1032.5652      0.12822102    -2176.6705      19567.59     
      1090  -1032.5752     -1032.5752      0.12557158    -2174.5891      19567.496    
      1100  -1032.5853     -1032.5853      0.12289027    -2172.4046      19567.398    
      1110  -1032.5956     -1032.5956      0.12017373    -2170.1088      19567.296    
      1120  -1032.606      -1032.606       0.11741799    -2167.6893      19567.19     
      1130  -1032.6167     -1032.6167      0.11577806    -2165.1354      19567.079    
      1140  -1032.6276     -1032.6276      0.11524062    -2162.4272      19566.963    
      1150  -1032.6388     -1032.6388      0.11467376    -2159.5551      19566.841    
      1160  -1032.6503     -1032.6503      0.11407318    -2156.4695      19566.711    
      1170  -1032.6621     -1032.6621      0.11343299    -2153.2198      19566.577    
      1180  -1032.6744     -1032.6744      0.11274651    -2149.4812      19566.421    
      1190  -1032.6873     -1032.6873      0.11200049    -2146.2985      19566.305    
      1200  -1032.7008     -1032.7008      0.11120603    -2137.248       19565.855    
      1210  -1032.7142     -1032.7142      0.11036569    -2129.846       19565.508    
      1220  -1032.7293     -1032.7293      0.10938969    -2124.4368      19565.295    
      1230  -1032.7471     -1032.7471      0.1081783     -2118.5525      19565.084    
      1240  -1032.7679     -1032.7679      0.10668166    -2110.6811      19564.796    
      1250  -1032.7931     -1032.7931      0.10474412    -2102.7177      19564.567    
      1260  -1032.8267     -1032.8267      0.10192754    -2094.5445      19564.455    
      1270  -1032.8734     -1032.8734      0.097542441   -2075.1617      19563.945    
      1280  -1032.91       -1032.91        0.093623866   -2064.0601      19563.89     
      1290  -1032.9698     -1032.9698      0.086097327   -2024.1193      19562.774    
      1300  -1033.0029     -1033.0029      0.08236975    -1989.9283      19561.6      
      1310  -1033.0099     -1033.0099      0.082970336   -1940.4754      19558.906    
      1320  -1033.0172     -1033.0172      0.083383012   -1992.7162      19562.138    
      1330  -1033.0218     -1033.0218      0.083935875   -1960.1206      19560.369    
      1340  -1033.0274     -1033.0274      0.084220546   -2006.9505      19563.251    
      1350  -1033.0321     -1033.0321      0.084757824   -1934.7963      19559.187    
      1360  -1033.0463     -1033.0463      0.08566916    -1954.8551      19560.771    
      1370  -1033.0508     -1033.0508      0.086288215   -1984.73        19562.648    
      1380  -1033.0608     -1033.0608      0.087041026   -1973.2735      19562.293    
      1390  -1033.0751     -1033.0751      0.088257588   -1934.5194      19560.497    
      1400  -1033.0883     -1033.0883      0.089657406   -1918.5081      19560.011    
      1410  -1033.0916     -1033.0916      0.089727883   -1952.1486      19562.075    
      1420  -1033.0957     -1033.0957      0.090357599   -1934.058       19561.165    
      1430  -1033.1016     -1033.1016      0.090829137   -1966.4659      19563.257    
      1440  -1033.1063     -1033.1063      0.0911511     -1947.0924      19562.291    
      1450  -1033.1124     -1033.1124      0.091754811   -1954.6226      19562.941    
      1460  -1033.1303     -1033.1303      0.093741374   -1926.3492      19561.935    
      1470  -1033.1383     -1033.1383      0.094436334   -1905.5222      19561.011    
      1480  -1033.1427     -1033.1427      0.09493231    -1917.2138      19561.85     
      1490  -1033.146      -1033.146       0.095189956   -1921.4842      19562.217    
      1500  -1033.1533     -1033.1533      0.095980801   -1924.0627      19562.634    
      1510  -1033.158      -1033.158       0.096206209   -1944.578       19563.998    
      1520  -1033.1697     -1033.1697      0.097153841   -1897.0697      19561.657    
      1530  -1033.1738     -1033.1738      0.097707285   -1878.0418      19560.705    
      1540  -1033.1793     -1033.1793      0.098184979   -1827.1054      19557.947    
      1550  -1033.1817     -1033.1817      0.098102939   -1898.2243      19562.16     
      1560  -1033.1879     -1033.1879      0.09852808    -1876.2442      19561.11     
      1570  -1033.1909     -1033.1909      0.098601525   -1938.8013      19564.856    
      1580  -1033.1939     -1033.1939      0.099019477   -1887.9768      19562.01     
      1590  -1033.2001     -1033.2001      0.099399042   -1872.3528      19561.324    
      1600  -1033.2137     -1033.2137      0.10045834    -1859.0784      19561.044    
      1610  -1033.2246     -1033.2246      0.10100556    -1864.7242      19561.765    
      1620  -1033.2278     -1033.2278      0.10110989    -1863.0617      19561.781    
      1630  -1033.2319     -1033.2319      0.10133332    -1843.8956      19560.811    
      1640  -1033.2354     -1033.2354      0.10155693    -1844.543       19560.975    
      1650  -1033.239      -1033.239       0.10157979    -1846.8972      19561.234    
      1660  -1033.2432     -1033.2432      0.10209321    -1806.8853      19559.061    
      1670  -1033.2467     -1033.2467      0.10206812    -1861.1789      19562.331    
      1680  -1033.2515     -1033.2515      0.10230013    -1855.3524      19562.159    
      1690  -1033.2552     -1033.2552      0.10200555    -1879.3163      19563.676    
      1700  -1033.2587     -1033.2587      0.10238453    -1856.4216      19562.467    
      1710  -1033.2711     -1033.2711      0.10243394    -1871.6664      19563.77     
      1720  -1033.2741     -1033.2741      0.10294549    -1815.47        19560.608    
      1730  -1033.2775     -1033.2775      0.10277029    -1826.0172      19561.33     
      1740  -1033.2805     -1033.2805      0.10273689    -1904.2755      19565.981    
      1750  -1033.2838     -1033.2838      0.10289221    -1853.5817      19563.137    
      1760  -1033.2909     -1033.2909      0.10292011    -1838.8743      19562.515    
      1770  -1033.2971     -1033.2971      0.10307609    -1841.5425      19562.87     
      1780  -1033.3005     -1033.3005      0.10280799    -1876.122       19564.987    
      1790  -1033.3039     -1033.3039      0.10293779    -1825.4567      19562.147    
      1800  -1033.307      -1033.307       0.10275402    -1869.0253      19564.777    
      1810  -1033.314      -1033.314       0.10272522    -1853.0996      19564.065    
      1820  -1033.3182     -1033.3182      0.10259227    -1931.1702      19568.744    
      1830  -1033.3208     -1033.3208      0.10261747    -1850.6696      19564.132    
      1840  -1033.3267     -1033.3267      0.1023893     -1888.7359      19566.525    
      1850  -1033.3332     -1033.3332      0.10237114    -1872.0045      19565.748    
      1860  -1033.3406     -1033.3406      0.10195979    -1810.0834      19562.361    
      1870  -1033.3515     -1033.3515      0.10166235    -1869.1908      19566.116    
      1880  -1033.378      -1033.378       0.10023917    -1810.9702      19563.47     
      1890  -1033.3811     -1033.3811      0.099810063   -1787.5984      19562.191    
      1900  -1033.3917     -1033.3917      0.098887167   -1809.0346      19563.712    
      1910  -1033.3959     -1033.3959      0.098723754   -1790.6853      19562.754    
      1920  -1033.4022     -1033.4022      0.0987848     -1809.1407      19563.988    
      1930  -1033.4072     -1033.4072      0.099266303   -1805.9619      19563.925    
      1940  -1033.4118     -1033.4118      0.10010888    -1801.8011      19563.8      
      1950  -1033.4159     -1033.4159      0.10075724    -1831.7347      19565.64     
      1960  -1033.4226     -1033.4226      0.10129317    -1847.0704      19566.693    
      1970  -1033.4305     -1033.4305      0.10233084    -1834.4189      19566.145    
      1980  -1033.4356     -1033.4356      0.10307018    -1840.0552      19566.594    
      1990  -1033.4395     -1033.4395      0.10322045    -1786.6551      19563.578    
      2000  -1033.4471     -1033.4471      0.10421715    -1777.6511      19563.228    
      2010  -1033.4539     -1033.4539      0.10472474    -1800.3705      19564.702    
      2020  -1033.4581     -1033.4581      0.10532388    -1785.8849      19563.954    
      2030  -1033.4627     -1033.4627      0.10567485    -1835.7451      19566.954    
      2040  -1033.4658     -1033.4658      0.10607179    -1782.8033      19563.944    
      2050  -1033.4715     -1033.4715      0.10641749    -1818.063       19566.115    
      2060  -1033.4782     -1033.4782      0.10667029    -1810.6755      19565.828    
      2070  -1033.4813     -1033.4813      0.10743802    -1760.4691      19562.981    
      2080  -1033.4866     -1033.4866      0.10741025    -1816.6132      19566.351    
      2090  -1033.4924     -1033.4924      0.10815199    -1784.7082      19564.623    
      2100  -1033.4973     -1033.4973      0.10813074    -1767.9064      19563.743    
      2110  -1033.5058     -1033.5058      0.10862502    -1761.1932      19563.529    
      2120  -1033.527      -1033.527       0.10879985    -1768.6238      19564.389    
      2130  -1033.5316     -1033.5316      0.10875299    -1806.0654      19566.655    
      2140  -1033.5419     -1033.5419      0.10891674    -1762.1328      19564.305    
      2150  -1033.547      -1033.547       0.10874165    -1773.2745      19565.048    
      2160  -1033.5516     -1033.5516      0.10852537    -1786.1031      19565.88     
      2170  -1033.5568     -1033.5568      0.10829158    -1792.0047      19566.32     
      2180  -1033.5656     -1033.5656      0.1081026     -1741.6984      19563.566    
      2190  -1033.5751     -1033.5751      0.1076291     -1715.1906      19562.205    
      2200  -1033.5816     -1033.5816      0.10713077    -1740.9654      19563.819    
      2210  -1033.5915     -1033.5915      0.10653321    -1726.8745      19563.185    
      2220  -1033.602      -1033.602       0.10569403    -1711.7052      19562.499    
      2230  -1033.6083     -1033.6083      0.10600498    -1737.8534      19564.127    
      2240  -1033.6217     -1033.6217      0.10710094    -1751.0077      19565.137    
      2250  -1033.625      -1033.625       0.10735316    -1773.9123      19566.523    
      2260  -1033.6283     -1033.6283      0.10766397    -1736.8644      19564.429    
      2270  -1033.6351     -1033.6351      0.10812173    -1742.0995      19564.857    
      2280  -1033.6415     -1033.6415      0.1085758     -1743.3512      19565.041    
      2290  -1033.6463     -1033.6463      0.1088535     -1767.425       19566.526    
      2300  -1033.6506     -1033.6506      0.10914631    -1757.2433      19566.011    
      2310  -1033.6559     -1033.6559      0.10941947    -1783.9029      19567.653    
      2320  -1033.6658     -1033.6658      0.11003862    -1719.968       19564.115    
      2330  -1033.6703     -1033.6703      0.11024981    -1741.0518      19565.418    
      2340  -1033.6782     -1033.6782      0.11066346    -1694.034       19562.83     
      2350  -1033.6819     -1033.6819      0.11071305    -1782.7083      19568.043    
      2360  -1033.6877     -1033.6877      0.1110082     -1694.2832      19563.013    
      2370  -1033.6998     -1033.6998      0.11134906    -1751.4417      19566.544    
      2380  -1033.703      -1033.703       0.11141414    -1745.5066      19566.257    
      2390  -1033.708      -1033.708       0.11156286    -1714.5726      19564.551    
      2400  -1033.7111     -1033.7111      0.11171173    -1686.5749      19562.978    
      2410  -1033.7163     -1033.7163      0.11171019    -1727.0504      19565.42     
      2420  -1033.7223     -1033.7223      0.11187947    -1678.3526      19562.701    
      2430  -1033.7269     -1033.7269      0.11191939    -1722.6993      19565.353    
      2440  -1033.7309     -1033.7309      0.11195525    -1672.6912      19562.526    
      2450  -1033.7442     -1033.7442      0.11196205    -1683.2553      19563.376    
      2460  -1033.7609     -1033.7609      0.11184348    -1710.3393      19565.246    
      2470  -1033.7656     -1033.7656      0.11180729    -1694.3238      19564.401    
      2480  -1033.7688     -1033.7688      0.11163502    -1747.1365      19567.525    
      2490  -1033.7767     -1033.7767      0.11145352    -1749.0584      19567.779    
      2500  -1033.787      -1033.787       0.11132871    -1671.7458      19563.476    
      2510  -1033.7914     -1033.7914      0.11105757    -1712.2149      19565.906    
      2520  -1033.7951     -1033.7951      0.11094881    -1687.737       19564.553    
      2530  -1033.8052     -1033.8052      0.11053309    -1698.6021      19565.366    
      2540  -1033.8102     -1033.8102      0.11042765    -1667.1782      19563.632    
      2550  -1033.817      -1033.817       0.11005307    -1680.16        19564.51     
      2560  -1033.8257     -1033.8257      0.10967088    -1650.3006      19562.937    
      2570  -1033.8316     -1033.8316      0.10919148    -1697.683       19565.795    
      2580  -1033.8371     -1033.8371      0.10899513    -1611.5346      19560.906    
      2590  -1033.8414     -1033.8414      0.10858046    -1712.2327      19566.82     
      2600  -1033.8524     -1033.8524      0.10796606    -1649.2619      19563.372    
      2610  -1033.8568     -1033.8568      0.10750354    -1723.6939      19567.772    
      2620  -1033.8602     -1033.8602      0.10741753    -1683.0347      19565.472    
      2630  -1033.8641     -1033.8641      0.10703424    -1695.5152      19566.271    
      2640  -1033.8706     -1033.8706      0.10659996    -1642.7494      19563.334    
      2650  -1033.8753     -1033.8753      0.10626758    -1649.3383      19563.803    
      2660  -1033.8808     -1033.8808      0.10570253    -1725.1418      19568.302    
      2670  -1033.8856     -1033.8856      0.10544506    -1649.4233      19564        
      2680  -1033.8961     -1033.8961      0.10455307    -1650.7606      19564.276    
      2690  -1033.9135     -1033.9135      0.10281591    -1659.2793      19565.111    
      2700  -1033.9214     -1033.9214      0.10211078    -1670.2546      19565.897    
      2710  -1033.9291     -1033.9291      0.10142479    -1659.3097      19565.409    
      2720  -1033.9335     -1033.9335      0.10096493    -1648.2657      19564.854    
      2730  -1033.9366     -1033.9366      0.10068419    -1635.1798      19564.155    
      2740  -1033.9422     -1033.9422      0.10006763    -1643.3788      19564.74     
      2750  -1033.9527     -1033.9527      0.099001929   -1608.1791      19562.908    
      2760  -1033.9583     -1033.9583      0.098242552   -1679.8125      19567.171    
      2770  -1033.961      -1033.961       0.098082085   -1644.9624      19565.199    
      2780  -1033.9641     -1033.9641      0.097700772   -1672.5298      19566.859    
      2790  -1033.9715     -1033.9715      0.096891184   -1642.9289      19565.29     
      2800  -1033.9765     -1033.9765      0.096218639   -1656.1297      19566.158    
      2810  -1033.9807     -1033.9807      0.095994609   -1626.2364      19564.502    
      2820  -1033.9839     -1033.9839      0.095656591   -1606.5163      19563.424    
      2830  -1033.9886     -1033.9886      0.095094966   -1643.1977      19565.641    
      2840  -1033.992      -1033.992       0.094631528   -1659.1195      19566.634    
      2850  -1033.9969     -1033.9969      0.094015657   -1648.0822      19566.093    
      2860  -1034.0046     -1034.0046      0.093248423   -1621.4956      19564.704    
      2870  -1034.0078     -1034.0078      0.092823356   -1656.7925      19566.814    
      2880  -1034.0125     -1034.0125      0.092408534   -1617.1688      19564.611    
      2890  -1034.0148     -1034.0148      0.092071554   -1670.2204      19567.732    
      2900  -1034.0228     -1034.0228      0.091040076   -1631.833       19565.675    
      2910  -1034.0249     -1034.0249      0.090854983   -1656.3374      19567.133    
      2920  -1034.0298     -1034.0298      0.090380209   -1657.4543      19567.295    
      2930  -1034.0354     -1034.0354      0.089760378   -1632.4771      19565.96     
      2940  -1034.0407     -1034.0407      0.089186869   -1618.9902      19565.287    
      2950  -1034.0452     -1034.0452      0.088664734   -1625.5297      19565.758    
      2960  -1034.0505     -1034.0505      0.088069291   -1632.146       19566.248    
      2970  -1034.0522     -1034.0522      0.088031634   -1591.5889      19563.932    
      2980  -1034.0557     -1034.0557      0.087570706   -1619.5775      19565.626    
      2990  -1034.0593     -1034.0593      0.087080431   -1659.9086      19568.038    
      3000  -1034.063      -1034.063       0.086704354   -1592.7152      19564.221    
      3010  -1034.0676     -1034.0676      0.086076946   -1657.5525      19568.074    
      3020  -1034.0709     -1034.0709      0.08594783    -1586.6919      19564.032    
      3030  -1034.0742     -1034.0742      0.085558482   -1612.0909      19565.572    
      3040  -1034.079      -1034.079       0.084901495   -1645.82        19567.627    
      3050  -1034.0842     -1034.0842      0.084485118   -1591.927       19564.611    
      3060  -1034.0893     -1034.0893      0.083877863   -1609.8688      19565.757    
      3070  -1034.0922     -1034.0922      0.083561068   -1618.6558      19566.328    
      3080  -1034.0951     -1034.0951      0.083250214   -1635.416       19567.36     
      3090  -1034.1012     -1034.1012      0.08278897    -1594.4126      19565.11     
      3100  -1034.1035     -1034.1035      0.082383722   -1627.2507      19567.064    
      3110  -1034.1107     -1034.1107      0.081690075   -1606.017       19565.983    
      3120  -1034.1137     -1034.1137      0.081477298   -1568.7118      19563.887    
      3130  -1034.1157     -1034.1157      0.081096228   -1598.8808      19565.68     
      3140  -1034.1185     -1034.1185      0.080904821   -1608.5613      19566.298    
      3150  -1034.1205     -1034.1205      0.080693302   -1609.0454      19566.368    
      3160  -1034.1248     -1034.1248      0.080063039   -1626.3046      19567.467    
      3170  -1034.1292     -1034.1292      0.079960765   -1572.7942      19564.454    
      3180  -1034.1325     -1034.1325      0.079418052   -1619.1794      19567.216    
      3190  -1034.1361     -1034.1361      0.079223225   -1577.9045      19564.901    
      3200  -1034.1384     -1034.1384      0.07908587    -1545.5051      19563.075    
      3210  -1034.1432     -1034.1432      0.07872293    -1561.3247      19564.095    
      3220  -1034.1466     -1034.1466      0.078292836   -1599.7494      19566.394    
      3230  -1034.1498     -1034.1498      0.078203575   -1576.7454      19565.13     
      3240  -1034.1519     -1034.1519      0.077946479   -1572.0283      19564.904    
      3250  -1034.1539     -1034.1539      0.077640943   -1568.3273      19564.737    
      3260  -1034.1576     -1034.1576      0.077383449   -1590.322       19566.091    
      3270  -1034.1605     -1034.1605      0.077160679   -1571.7527      19565.08     
      3280  -1034.1674     -1034.1674      0.076703367   -1579.8223      19565.7      
      3290  -1034.1694     -1034.1694      0.076420979   -1584.2207      19566.002    
      3300  -1034.1762     -1034.1762      0.075880043   -1617.6083      19568.09     
      3310  -1034.1799     -1034.1799      0.075800437   -1571.1744      19565.482    
      3320  -1034.1822     -1034.1822      0.075570444   -1528.3752      19563.058    
      3330  -1034.1839     -1034.1839      0.075546118   -1518.2661      19562.512    
      3340  -1034.1869     -1034.1869      0.07536788    -1586.9632      19566.554    
      3350  -1034.1902     -1034.1902      0.074998861   -1544.4367      19564.168    
      3360  -1034.1949     -1034.1949      0.074719778   -1583.1581      19566.516    
      3370  -1034.1982     -1034.1982      0.074334631   -1560.6788      19565.293    
      3380  -1034.2004     -1034.2004      0.074392565   -1599.9481      19567.613    
      3390  -1034.2021     -1034.2021      0.074373107   -1566.1873      19565.695    
      3400  -1034.2044     -1034.2044      0.074087773   -1567.6167      19565.831    
      3410  -1034.2066     -1034.2066      0.073834896   -1607.1768      19568.175    
      3420  -1034.2205     -1034.2205      0.073272731   -1562.0418      19565.875    
      3430  -1034.2249     -1034.2249      0.072905048   -1563.2129      19566.046    
      3440  -1034.2264     -1034.2264      0.073174712   -1510.3963      19563.019    
      3450  -1034.23       -1034.23        0.07279613    -1564.0832      19566.209    
      3460  -1034.2328     -1034.2328      0.072840975   -1572.4512      19566.756    
      3470  -1034.2361     -1034.2361      0.072594765   -1527.5942      19564.236    
      3480  -1034.2394     -1034.2394      0.072345853   -1553.293       19565.802    
      3490  -1034.2446     -1034.2446      0.072341503   -1501.096       19562.901    
      3500  -1034.2473     -1034.2473      0.07221687    -1587.8154      19567.981    
      3510  -1034.2494     -1034.2494      0.072107692   -1572.6142      19567.149    
      3520  -1034.2522     -1034.2522      0.072286034   -1512.6799      19563.741    
      3530  -1034.258      -1034.258       0.071877669   -1522.1852      19564.429    
      3540  -1034.2607     -1034.2607      0.071991902   -1530.1875      19564.949    
      3550  -1034.2767     -1034.2767      0.071764198   -1516.4069      19564.522    
      3560  -1034.2789     -1034.2789      0.07145727    -1533.5602      19565.57     
      3570  -1034.2815     -1034.2815      0.071711637   -1480.9119      19562.583    
      3580  -1034.2839     -1034.2839      0.071534526   -1521.8336      19565.004    
      3590  -1034.2864     -1034.2864      0.071530536   -1550.7862      19566.738    
      3600  -1034.2884     -1034.2884      0.071491517   -1529.7331      19565.566    
      3610  -1034.2922     -1034.2922      0.071279471   -1522.2831      19565.228    
      3620  -1034.2947     -1034.2947      0.071570579   -1475.9427      19562.6      
      3630  -1034.2984     -1034.2984      0.071404305   -1559.5394      19567.525    
      3640  -1034.3032     -1034.3032      0.071365576   -1537.37        19566.351    
      3650  -1034.3062     -1034.3062      0.071301502   -1549.0669      19567.1      
      3660  -1034.3083     -1034.3083      0.071298344   -1534.5061      19566.304    
      3670  -1034.3101     -1034.3101      0.071352217   -1515.2848      19565.233    
      3680  -1034.3124     -1034.3124      0.071262737   -1556.7587      19567.687    
      3690  -1034.3148     -1034.3148      0.071392455   -1551.5384      19567.442    
      3700  -1034.3164     -1034.3164      0.071275355   -1488.3981      19563.826    
      3710  -1034.3207     -1034.3207      0.071051588   -1519.66        19565.736    
      3720  -1034.3249     -1034.3249      0.071274888   -1510.7617      19565.314    
      3730  -1034.3274     -1034.3274      0.071109677   -1538.717       19566.991    
      3740  -1034.3305     -1034.3305      0.07095934    -1512.7493      19565.562    
      3750  -1034.3713     -1034.3713      0.069495651   -1498.5989      19565.698    
      3760  -1034.3759     -1034.3759      0.069377436   -1484.7445      19564.998    
      3770  -1034.3819     -1034.3819      0.069147716   -1514.0819      19566.831    
      3780  -1034.3863     -1034.3863      0.068931503   -1450.0862      19563.226    
      3790  -1034.3887     -1034.3887      0.068538362   -1490.2697      19565.605    
      3800  -1034.3913     -1034.3913      0.068392982   -1534.451       19568.218    
      3810  -1034.3933     -1034.3933      0.068167779   -1541.1597      19568.651    
      3820  -1034.3955     -1034.3955      0.068067052   -1485.3073      19565.466    
      3830  -1034.3984     -1034.3984      0.067862587   -1488.0928      19565.691    
      3840  -1034.4032     -1034.4032      0.069308263   -1503.7757      19566.701    
      3850  -1034.4055     -1034.4055      0.069873772   -1444.3695      19563.319    
      3860  -1034.409      -1034.409       0.071523366   -1516.4378      19567.56     
      3870  -1034.4113     -1034.4113      0.07187986    -1504.5532      19566.92     
      3880  -1034.4131     -1034.4131      0.07251545    -1528.1082      19568.322    
      3890  -1034.4159     -1034.4159      0.073367258   -1412.8776      19561.72     
      3900  -1034.4178     -1034.4178      0.074169019   -1494.8214      19566.494    
      3910  -1034.4199     -1034.4199      0.075260892   -1414.6394      19561.904    
      3920  -1034.4229     -1034.4229      0.07613852    -1470.3712      19565.187    
      3930  -1034.4265     -1034.4265      0.07697482    -1476.5343      19565.617    
      3940  -1034.4358     -1034.4358      0.080078849   -1590.5526      19572.419    
      3950  -1034.4387     -1034.4387      0.081109308   -1461.8563      19565.018    
      3960  -1034.4405     -1034.4405      0.08155308    -1473.4113      19565.725    
      3970  -1034.4443     -1034.4443      0.083086717   -1426.7901      19563.104    
      3980  -1034.4459     -1034.4459      0.083528008   -1425.3453      19563.054    
      3990  -1034.4491     -1034.4491      0.084334499   -1488.3485      19566.76     
      4000  -1034.452      -1034.452       0.085193965   -1466.9143      19565.579    
      4010  -1034.4546     -1034.4546      0.086316705   -1514.693       19568.395    
      4020  -1034.4573     -1034.4573      0.087210158   -1502.2529      19567.726    
      4030  -1034.4614     -1034.4614      0.0884397     -1468.0187      19565.824    
      4040  -1034.4674     -1034.4674      0.090333389   -1430.1257      19563.751    
      4050  -1034.4712     -1034.4712      0.091495445   -1461.7858      19565.654    
      4060  -1034.4773     -1034.4773      0.093324424   -1469.9135      19566.24     
      4070  -1034.4783     -1034.4783      0.093687098   -1431.7243      19564.051    
      4080  -1034.4804     -1034.4804      0.094064823   -1454.4633      19565.406    
      4090  -1034.4823     -1034.4823      0.094909322   -1484.4622      19567.175    
      4100  -1034.4847     -1034.4847      0.095718356   -1464.5983      19566.071    
      4110  -1034.4901     -1034.4901      0.096724937   -1485.4617      19567.381    
      4120  -1034.4948     -1034.4948      0.098255675   -1482.2396      19567.282    
      4130  -1034.4987     -1034.4987      0.099422866   -1453.7792      19565.706    
      4140  -1034.5046     -1034.5046      0.10116232    -1376.043       19561.326    
      4150  -1034.5065     -1034.5065      0.1012547     -1463.9292      19566.438    
      4160  -1034.5083     -1034.5083      0.10167919    -1466.2155      19566.604    
      4170  -1034.5102     -1034.5102      0.10220907    -1363.0296      19560.679    
      4180  -1034.5121     -1034.5121      0.10261762    -1462.8738      19566.48     
      4190  -1034.5139     -1034.5139      0.10304379    -1436.1005      19564.965    
      4200  -1034.5156     -1034.5156      0.1033942     -1530.285       19570.448    
      4210  -1034.5213     -1034.5213      0.10474324    -1458.344       19566.387    
      4220  -1034.5233     -1034.5233      0.10503403    -1435.7284      19565.116    
      4230  -1034.5255     -1034.5255      0.105464      -1444.7397      19565.677    
      4240  -1034.5296     -1034.5296      0.10605321    -1465.388       19566.948    
      4250  -1034.5316     -1034.5316      0.10660759    -1340.7452      19559.787    
      4260  -1034.5341     -1034.5341      0.10689107    -1457.7452      19566.589    
      4270  -1034.5364     -1034.5364      0.10729846    -1438.6981      19565.53     
      4280  -1034.5388     -1034.5388      0.10758077    -1567.0065      19573.01     
      4290  -1034.5431     -1034.5431      0.10847932    -1439.2311      19565.687    
      4300  -1034.5457     -1034.5457      0.10876767    -1457.1348      19566.769    
      4310  -1034.5499     -1034.5499      0.10918844    -1429.7992      19565.269    
      4320  -1034.5516     -1034.5516      0.10937981    -1441.2112      19565.96     
      4330  -1034.5542     -1034.5542      0.10972984    -1448.923       19566.456    
      4340  -1034.5567     -1034.5567      0.11002801    -1432.1855      19565.536    
      4350  -1034.5585     -1034.5585      0.11008346    -1543.8575      19572.04     
      4360  -1034.5616     -1034.5616      0.11046979    -1433.9572      19565.733    
      4370  -1034.5654     -1034.5654      0.11082926    -1456.253       19567.096    
      4380  -1034.5678     -1034.5678      0.11112162    -1434.7614      19565.901    
      4390  -1034.5702     -1034.5702      0.11119967    -1446.2921      19566.613    
      4400  -1034.5718     -1034.5718      0.11120504    -1483.9872      19568.827    
      4410  -1034.5742     -1034.5742      0.1115343     -1437.6499      19566.194    
      4420  -1034.5772     -1034.5772      0.111559      -1393.4656      19563.699    
      4430  -1034.5789     -1034.5789      0.11171099    -1379.9967      19562.957    
      4440  -1034.5819     -1034.5819      0.11179684    -1461.0779      19567.703    
      4450  -1034.5862     -1034.5862      0.11190408    -1445.2101      19566.872    
      4460  -1034.5882     -1034.5882      0.11191975    -1421.7825      19565.559    
      4470  -1034.5928     -1034.5928      0.11201293    -1405.6101      19564.719    
      4480  -1034.5962     -1034.5962      0.11210613    -1434.6972      19566.474    
      4490  -1034.5993     -1034.5993      0.11197538    -1475.2713      19568.888    
      4500  -1034.6084     -1034.6084      0.11188638    -1409.6294      19565.286    
      4510  -1034.6099     -1034.6099      0.11191447    -1374.1116      19563.269    
      4520  -1034.6121     -1034.6121      0.11174643    -1427.5723      19566.405    
      4530  -1034.6142     -1034.6142      0.11177393    -1435.3846      19566.905    
      4540  -1034.6171     -1034.6171      0.1115423     -1501.1001      19570.775    
      4550  -1034.6192     -1034.6192      0.11154047    -1416.4025      19565.92     
      4560  -1034.6218     -1034.6218      0.11140219    -1392.603       19564.604    
      4570  -1034.6254     -1034.6254      0.11119475    -1417.8236      19566.146    
      4580  -1034.6281     -1034.6281      0.11101945    -1455.4615      19568.386    
      4590  -1034.6309     -1034.6309      0.11090887    -1379.2809      19564.048    
      4600  -1034.6334     -1034.6334      0.11072941    -1431.2928      19567.113    
      4610  -1034.6392     -1034.6392      0.11027635    -1437.8048      19567.63     
      4620  -1034.6408     -1034.6408      0.11022129    -1345.3757      19562.333    
      4630  -1034.6435     -1034.6435      0.10997795    -1418.7689      19566.637    
      4640  -1034.6469     -1034.6469      0.1096476     -1415.1005      19566.511    
      4650  -1034.6511     -1034.6511      0.10928474    -1398.692       19565.669    
      4660  -1034.6647     -1034.6647      0.10784932    -1432.6784      19567.99     
      4670  -1034.6667     -1034.6667      0.10765135    -1417.8499      19567.189    
      4680  -1034.6706     -1034.6706      0.10721705    -1400.6094      19566.3      
      4690  -1034.6724     -1034.6724      0.1069996     -1407.5564      19566.752    
      4700  -1034.6748     -1034.6748      0.1067446     -1411.5808      19567.05     
      4710  -1034.6778     -1034.6778      0.10641453    -1377.9378      19565.191    
      4720  -1034.6794     -1034.6794      0.10621184    -1440.377       19568.847    
      4730  -1034.6815     -1034.6815      0.10597835    -1399.2156      19566.529    
      4740  -1034.6863     -1034.6863      0.10542603    -1347.1176      19563.66     
      4750  -1034.691      -1034.691       0.10488412    -1397.3036      19566.695    
      4760  -1034.694      -1034.694       0.10452929    -1401.9732      19567.057    
      4770  -1034.6975     -1034.6975      0.1041305     -1394.3681      19566.723    
      4780  -1034.6993     -1034.6993      0.10392581    -1400.7283      19567.147    
      4790  -1034.7149     -1034.7149      0.1020005     -1295.1465      19561.545    
      4800  -1034.7168     -1034.7168      0.10182428    -1385.6942      19566.828    
      4810  -1034.7187     -1034.7187      0.10162417    -1420.8307      19568.924    
      4820  -1034.7207     -1034.7207      0.10138471    -1395.6092      19567.53     
      4830  -1034.7226     -1034.7226      0.10121832    -1397.7512      19567.716    
      4840  -1034.7257     -1034.7257      0.10089274    -1410.3895      19568.551    
      4850  -1034.7279     -1034.7279      0.10069232    -1486.8526      19573.055    
      4860  -1034.7302     -1034.7302      0.10048454    -1371.5385      19566.456    
      4870  -1034.7328     -1034.7328      0.10018072    -1396.5695      19567.99     
      4880  -1034.7382     -1034.7382      0.099615121   -1284.1045      19561.689    
      4890  -1034.7404     -1034.7404      0.099481243   -1404.783       19568.725    
      4900  -1034.7457     -1034.7457      0.098926874   -1373.1185      19567.08     
      4910  -1034.7475     -1034.7475      0.098835982   -1405.8955      19569.035    
      4920  -1034.7498     -1034.7498      0.098609236   -1413.1706      19569.537    
      4930  -1034.7539     -1034.7539      0.098288878   -1377.1037      19567.597    
      4940  -1034.7555     -1034.7555      0.098141583   -1356.2645      19566.448    
      4950  -1034.7591     -1034.7591      0.097805292   -1370.2057      19567.384    
      4960  -1034.7658     -1034.7658      0.09720548    -1372.8378      19567.777    
      4970  -1034.7681     -1034.7681      0.097044929   -1408.12        19569.9      
      4980  -1034.7725     -1034.7725      0.096697542   -1395.4234      19569.324    
      4990  -1034.7757     -1034.7757      0.096367063   -1382.0336      19568.67     
      5000  -1034.7772     -1034.7772      0.096361445   -1367.7605      19567.901    
      5010  -1034.7823     -1034.7823      0.095869303   -1402.8032      19570.112    
      5020  -1034.7859     -1034.7859      0.095566401   -1418.7857      19571.17     
      5030  -1034.7887     -1034.7887      0.095335063   -1364.6542      19568.142    
      5040  -1034.7911     -1034.7911      0.095041883   -1348.0078      19567.274    
      5050  -1034.7957     -1034.7957      0.094663778   -1381.5008      19569.377    
      5060  -1034.7998     -1034.7998      0.094251007   -1347.3403      19567.56     
      5070  -1034.8018     -1034.8018      0.094131983   -1393.1189      19570.28     
      5080  -1034.8201     -1034.8201      0.092531904   -1379.4782      19570.196    
      5090  -1034.822      -1034.822       0.092414049   -1411.5565      19572.122    
      5100  -1034.8241     -1034.8241      0.092009762   -1339.3714      19568.032    
      5110  -1034.8255     -1034.8255      0.092064564   -1356.469       19569.072    
      5120  -1034.8272     -1034.8272      0.09178802    -1349.302       19568.727    
      5130  -1034.8293     -1034.8293      0.091841717   -1423.0467      19573.079    
      5140  -1034.8318     -1034.8318      0.091691412   -1385.252       19570.985    
      5150  -1034.8359     -1034.8359      0.091039831   -1310.4815      19566.834    
      5160  -1034.8385     -1034.8385      0.091100662   -1410.6415      19572.725    
      5170  -1034.8403     -1034.8403      0.090889474   -1401.874       19572.29     
      5180  -1034.8439     -1034.8439      0.090185866   -1374.7863      19570.87     
      5190  -1034.846      -1034.846       0.090100184   -1370.5025      19570.707    
      5200  -1034.8486     -1034.8486      0.089723035   -1358.7838      19570.136    
      5210  -1034.8507     -1034.8507      0.089823124   -1418.637       19573.687    
      5220  -1034.8538     -1034.8538      0.088879247   -1356.0437      19570.189    
      5230  -1034.8551     -1034.8551      0.088564104   -1347.0944      19569.731    
      5240  -1034.8571     -1034.8571      0.088559089   -1355.9446      19570.325    
      5250  -1034.8587     -1034.8587      0.088345647   -1371.0153      19571.264    
      5260  -1034.8604     -1034.8604      0.087786222   -1363.5686      19570.902    
      5270  -1034.8636     -1034.8636      0.086939485   -1321.0056      19568.583    
      5280  -1034.8686     -1034.8686      0.086311443   -1369.5671      19571.606    
      5290  -1034.8741     -1034.8741      0.084998867   -1350.8587      19570.765    
      5300  -1034.8775     -1034.8775      0.084018125   -1365.4754      19571.758    
      5310  -1034.8817     -1034.8817      0.082877658   -1349.4593      19571.022    
      5320  -1034.8849     -1034.8849      0.08191128    -1333.0321      19570.221    
      5330  -1034.8872     -1034.8872      0.081503524   -1353.6335      19571.523    
      5340  -1034.89       -1034.89        0.080464584   -1358.1969      19571.912    
      5350  -1034.8939     -1034.8939      0.079199616   -1350.5956      19571.66     
      5360  -1034.8958     -1034.8958      0.07868224    -1344.406       19571.395    
      5370  -1034.9032     -1034.9032      0.076001196   -1337.4231      19571.356    
      5380  -1034.9046     -1034.9046      0.07572343    -1301.7629      19569.37     
      5390  -1034.9061     -1034.9061      0.075361908   -1326.4565      19570.874    
      5400  -1035.0237     -1035.0237      0.067776751   -1325.661       19579.198    
      5410  -1035.0269     -1035.0269      0.061968374   -1288.0825      19577.275    
      5420  -1035.0606     -1035.0606      0.18746661    -1235.3422      19580.669    
      5430  -1035.0637     -1035.0637      0.17898642    -1245.6581      19581.245    
      5440  -1035.0672     -1035.0672      0.16837093    -1245.1245      19581.196    
      5450  -1035.0783     -1035.0783      0.12911972    -1221.319       19579.813    
      5460  -1035.0843     -1035.0843      0.10333949    -1226.3537      19580.158    
      5470  -1035.0866     -1035.0866      0.09337275    -1190.0996      19578.122    
      5480  -1035.0887     -1035.0887      0.084745309   -1251.8928      19581.758    
      5490  -1035.0907     -1035.0907      0.076445462   -1221.0925      19580.056    
      5500  -1035.1115     -1035.1115      0.080793403   -1171.9653      19579.007    
      5510  -1035.117      -1035.117       0.04362466    -1254.9121      19583.99     
      5513  -1035.1176     -1035.1176      0.042871105   -1225.27        19582.299    
Loop time of 77.1315 on 1 procs for 5513 steps with 936 atoms

99.8% CPU use with 1 MPI tasks x 1 OpenMP threads

Minimization stats:
  Stopping criterion = energy tolerance
  Energy initial, next-to-last, final = 
      -1028.0750115442  -1035.11755642579  -1035.11756673497
  Force two-norm initial, final = 234.20724 0.33396159
  Force max component initial, final = 166.32907 0.17127068
  Final line search alpha, max atom move = 0.00063465765 0.00010869825
  Iterations, force evaluations = 5513 5827

MPI task timing breakdown:
Section |  min time  |  avg time  |  max time  |%varavg| %total
---------------------------------------------------------------
Pair    | 76.79      | 76.79      | 76.79      |   0.0 | 99.56
Neigh   | 0.0033974  | 0.0033974  | 0.0033974  |   0.0 |  0.00
Comm    | 0.048417   | 0.048417   | 0.048417   |   0.0 |  0.06
Output  | 0.0099022  | 0.0099022  | 0.0099022  |   0.0 |  0.01
Modify  | 0          | 0          | 0          |   0.0 |  0.00
Other   |            | 0.2798     |            |       |  0.36

Nlocal:            936 ave         936 max         936 min
Histogram: 1 0 0 0 0 0 0 0 0 0
Nghost:           2440 ave        2440 max        2440 min
Histogram: 1 0 0 0 0 0 0 0 0 0
Neighs:          58502 ave       58502 max       58502 min
Histogram: 1 0 0 0 0 0 0 0 0 0
FullNghs:       117004 ave      117004 max      117004 min
Histogram: 1 0 0 0 0 0 0 0 0 0

Total # of neighbors = 117004
Ave neighs/atom = 125.00427
Neighbor list builds = 1
Dangerous builds = 0
Total wall time: 0:01:17
